ITEM: TIMESTEP
103
ITEM: NUMBER OF ATOMS
80
ITEM: BOX BOUNDS pp pp pp
0.0000000000000000e+00 4.6533240000000005e+00
0.0000000000000000e+00 5.8680000000000003e+00
0.0000000000000000e+00 6.5818347000000017e+01
ITEM: ATOMS id type xs ys zs
1 1 1 8.27786e-13 0
2 1 1 0.25 0.0352246
3 1 0.5 1 0.0224463
5 1 1 0.5 0
6 1 1 0.75 0.0352246
7 1 0.5 0.5 0.0224463
4 1 0.5 0.25 0.0615646
8 1 0.5 0.75 0.0615646
9 1 8.64103e-12 1 0.0748394
11 1 0.5 2.43689e-14 0.100039
13 1 2.24414e-11 0.5 0.0748394
15 1 0.5 0.5 0.100039
10 1 1.10166e-11 0.25 0.113179
12 1 0.5 0.25 0.138882
14 1 1.10165e-11 0.75 0.113179
16 1 0.5 0.75 0.138882
17 1 3.1065e-12 1 0.151876
21 1 1.88331e-12 0.5 0.151876
18 1 1 0.25 0.190543
19 1 0.5 2.27039e-15 0.17755
20 1 0.5 0.25 0.216225
22 1 1 0.75 0.190543
23 1 0.5 0.5 0.17755
24 1 0.5 0.75 0.216225
25 1 1 1 0.229244
26 1 2.61816e-14 0.25 0.267968
27 1 0.5 1.96768e-15 0.254873
29 1 4.13412e-14 0.5 0.229244
30 1 2.67218e-14 0.75 0.267968
31 1 0.5 0.5 0.254873
28 1 0.5 0.25 0.293497
32 1 0.5 0.75 0.293497
33 1 7.04965e-15 1.81632e-15 0.306906
37 1 2.02606e-15 0.5 0.306906
35 1 0.5 1 0.332051
39 1 0.5 0.5 0.332051
34 1 1 0.25 0.345631
36 1 0.5 0.25 0.370134
38 1 1 0.75 0.345631
40 1 0.5 0.75 0.370134
41 1 1 0.1 0.38756
45 1 1 0.6 0.38756
42 1 1 0.35 0.425643
43 1 0.5 0.1 0.412065
46 1 1 0.85 0.425643
47 1 0.5 0.6 0.412065
44 1 0.5 0.35 0.450791
48 1 0.5 0.85 0.450791
49 1 3.21997e-13 0.1 0.464196
51 1 0.5 0.1 0.489729
53 1 3.22135e-13 0.6 0.464196
55 1 0.5 0.6 0.489729
50 1 3.49101e-13 0.35 0.502816
52 1 0.5 0.35 0.528456
54 1 3.4897e-13 0.85 0.502816
56 1 0.5 0.85 0.528456
57 1 1 0.1 0.541454
61 1 1 0.6 0.541454
58 1 1 0.35 0.580111
59 1 0.5 0.1 0.567164
60 1 0.5 0.35 0.605845
62 1 1 0.85 0.580111
63 1 0.5 0.6 0.567164
64 1 0.5 0.85 0.605845
65 1 3.3317e-10 0.1 0.618715
66 1 3.61949e-10 0.35 0.657474
67 1 0.5 0.1 0.644593
69 1 3.3317e-10 0.6 0.618715
70 1 3.6195e-10 0.85 0.657474
71 1 0.5 0.6 0.644593
68 1 0.5 0.35 0.683002
72 1 0.5 0.85 0.683002
73 1 1 0.1 0.695646
77 1 1 0.6 0.695646
75 1 0.5 0.1 0.723197
79 1 0.5 0.6 0.723197
74 1 1 0.35 0.733495
76 1 0.5 0.35 0.759231
78 1 1 0.85 0.733495
80 1 0.5 0.85 0.759231
