ITEM: TIMESTEP
241
ITEM: NUMBER OF ATOMS
80
ITEM: BOX BOUNDS pp pp pp
0.0000000000000000e+00 4.6533240000000005e+00
0.0000000000000000e+00 5.8680000000000003e+00
0.0000000000000000e+00 6.5818347000000017e+01
ITEM: ATOMS id type xs ys zs
1 1 1 8.27786e-13 0
2 1 1 0.25 0.0350627
3 1 0.5 1 0.0222797
5 1 1 0.5 0
6 1 1 0.75 0.0350627
7 1 0.5 0.5 0.0222797
4 1 0.5 0.25 0.0612766
8 1 0.5 0.75 0.0612766
9 1 8.64103e-12 1 0.0744168
11 1 0.5 2.43689e-14 0.0995829
13 1 2.24414e-11 0.5 0.0744168
15 1 0.5 0.5 0.0995829
10 1 1.10166e-11 0.25 0.112547
12 1 0.5 0.25 0.138226
14 1 1.10165e-11 0.75 0.112547
16 1 0.5 0.75 0.138226
17 1 3.1065e-12 1 0.151029
21 1 1.88331e-12 0.5 0.151029
18 1 1 0.25 0.189507
19 1 0.5 2.27039e-15 0.176692
20 1 0.5 0.25 0.215153
22 1 1 0.75 0.189507
23 1 0.5 0.5 0.176692
24 1 0.5 0.75 0.215153
25 1 1 1 0.228026
26 1 2.61816e-14 0.25 0.266616
27 1 0.5 1.96768e-15 0.253581
29 1 4.13412e-14 0.5 0.228026
30 1 2.67218e-14 0.75 0.266616
31 1 0.5 0.5 0.253581
28 1 0.5 0.25 0.2919
32 1 0.5 0.75 0.2919
33 1 7.04965e-15 1.81632e-15 0.305518
37 1 2.02606e-15 0.5 0.305518
35 1 0.5 1 0.330317
39 1 0.5 0.5 0.330317
34 1 1 0.25 0.344249
36 1 0.5 0.25 0.367833
38 1 1 0.75 0.344249
40 1 0.5 0.75 0.367833
41 1 1 0.283333 0.389807
45 1 1 0.783333 0.389807
42 1 1 0.533333 0.427322
43 1 0.5 0.283333 0.413391
46 1 1 0.0333333 0.427322
47 1 0.5 0.783333 0.413391
44 1 0.5 0.533333 0.452123
48 1 0.5 0.0333333 0.452123
49 1 3.21997e-13 0.283333 0.465737
51 1 0.5 0.283333 0.491025
53 1 3.22135e-13 0.783333 0.465737
55 1 0.5 0.783333 0.491025
50 1 3.49101e-13 0.533333 0.504054
52 1 0.5 0.533333 0.529617
54 1 3.4897e-13 0.0333333 0.504054
56 1 0.5 0.0333333 0.529617
57 1 1 0.283333 0.542473
61 1 1 0.783333 0.542473
58 1 1 0.533333 0.580919
59 1 0.5 0.283333 0.568143
60 1 0.5 0.533333 0.606636
62 1 1 0.0333333 0.580919
63 1 0.5 0.783333 0.568143
64 1 0.5 0.0333333 0.606636
65 1 3.3317e-10 0.283333 0.619323
66 1 3.61949e-10 0.533333 0.657883
67 1 0.5 0.283333 0.645178
69 1 3.3317e-10 0.783333 0.619323
70 1 3.6195e-10 0.0333333 0.657883
71 1 0.5 0.783333 0.645178
68 1 0.5 0.533333 0.683395
72 1 0.5 0.0333333 0.683395
73 1 1 0.283333 0.695866
77 1 1 0.783333 0.695866
75 1 0.5 0.283333 0.723332
79 1 0.5 0.783333 0.723332
74 1 1 0.533333 0.733495
76 1 0.5 0.533333 0.759231
78 1 1 0.0333333 0.733495
80 1 0.5 0.0333333 0.759231
