ITEM: TIMESTEP
421
ITEM: NUMBER OF ATOMS
80
ITEM: BOX BOUNDS pp pp pp
0.0000000000000000e+00 4.6533240000000005e+00
0.0000000000000000e+00 5.8680000000000003e+00
0.0000000000000000e+00 6.5818347000000017e+01
ITEM: ATOMS id type xs ys zs
1 1 1 8.27786e-13 0
2 1 1 0.25 0.0353398
3 1 0.5 1 0.0225706
5 1 1 0.5 0
6 1 1 0.75 0.0353398
7 1 0.5 0.5 0.0225706
4 1 0.5 0.25 0.0617727
8 1 0.5 0.75 0.0617727
9 1 8.64103e-12 1 0.0751554
11 1 0.5 2.43689e-14 0.100378
13 1 2.24414e-11 0.5 0.0751554
15 1 0.5 0.5 0.100378
10 1 1.10166e-11 0.25 0.113659
12 1 0.5 0.25 0.139363
14 1 1.10165e-11 0.75 0.113659
16 1 0.5 0.75 0.139363
17 1 3.1065e-12 1 0.152507
21 1 1.88331e-12 0.5 0.152507
18 1 1 0.25 0.191312
19 1 0.5 2.27039e-15 0.178186
20 1 0.5 0.25 0.21702
22 1 1 0.75 0.191312
23 1 0.5 0.5 0.178186
24 1 0.5 0.75 0.21702
25 1 1 1 0.23013
26 1 2.61816e-14 0.25 0.26895
27 1 0.5 1.96768e-15 0.255846
29 1 4.13412e-14 0.5 0.23013
30 1 2.67218e-14 0.75 0.26895
31 1 0.5 0.5 0.255846
28 1 0.5 0.25 0.294668
32 1 0.5 0.75 0.294668
33 1 7.04965e-15 1.81632e-15 0.30777
37 1 2.02606e-15 0.5 0.30777
35 1 0.5 1 0.33349
39 1 0.5 0.5 0.33349
34 1 1 0.25 0.346591
36 1 0.5 0.25 0.372311
38 1 1 0.75 0.346591
40 1 0.5 0.75 0.372311
41 1 1 0.5 0.385412
45 1 1 2.11904e-15 0.385412
42 1 1 0.75 0.424233
43 1 0.5 0.5 0.411132
46 1 1 0.25 0.424233
47 1 0.5 1 0.411132
44 1 0.5 0.75 0.449954
48 1 0.5 0.25 0.449954
49 1 3.21997e-13 0.5 0.463053
51 1 0.5 0.5 0.488776
53 1 3.22135e-13 1 0.463053
55 1 0.5 2.11904e-15 0.488776
50 1 3.49101e-13 0.75 0.501872
52 1 0.5 0.75 0.527598
54 1 3.4897e-13 0.25 0.501872
56 1 0.5 0.25 0.527598
57 1 1 0.5 0.540688
61 1 1 1.96768e-15 0.540688
58 1 1 0.75 0.579505
59 1 0.5 0.5 0.566424
60 1 0.5 0.75 0.605241
62 1 1 0.25 0.579505
63 1 0.5 7.56798e-16 0.566424
64 1 0.5 0.25 0.605241
65 1 3.3317e-10 0.5 0.618259
66 1 3.61949e-10 0.75 0.657165
67 1 0.5 0.5 0.644144
69 1 3.3317e-10 1.21088e-15 0.618259
70 1 3.6195e-10 0.25 0.657165
71 1 0.5 7.56798e-16 0.644144
68 1 0.5 0.75 0.682688
72 1 0.5 0.25 0.682688
73 1 1 0.5 0.695476
77 1 1 2.11904e-15 0.695476
75 1 0.5 0.5 0.723096
79 1 0.5 1 0.723096
74 1 1 0.75 0.733495
76 1 0.5 0.75 0.759231
78 1 1 0.25 0.733495
80 1 0.5 0.25 0.759231
