ITEM: TIMESTEP
190
ITEM: NUMBER OF ATOMS
80
ITEM: BOX BOUNDS pp pp pp
0.0000000000000000e+00 4.6533240000000005e+00
0.0000000000000000e+00 5.8680000000000003e+00
0.0000000000000000e+00 6.5818347000000017e+01
ITEM: ATOMS id type xs ys zs
1 1 1 8.27786e-13 0
2 1 1 0.25 0.0350759
3 1 0.5 1 0.0222932
5 1 1 0.5 0
6 1 1 0.75 0.0350759
7 1 0.5 0.5 0.0222932
4 1 0.5 0.25 0.0612998
8 1 0.5 0.75 0.0612998
9 1 8.64103e-12 1 0.0744502
11 1 0.5 2.43689e-14 0.0996191
13 1 2.24414e-11 0.5 0.0744502
15 1 0.5 0.5 0.0996191
10 1 1.10166e-11 0.25 0.112596
12 1 0.5 0.25 0.138278
14 1 1.10165e-11 0.75 0.112596
16 1 0.5 0.75 0.138278
17 1 3.1065e-12 1 0.151096
21 1 1.88331e-12 0.5 0.151096
18 1 1 0.25 0.189589
19 1 0.5 2.27039e-15 0.176759
20 1 0.5 0.25 0.215236
22 1 1 0.75 0.189589
23 1 0.5 0.5 0.176759
24 1 0.5 0.75 0.215236
25 1 1 1 0.228124
26 1 2.61816e-14 0.25 0.26673
27 1 0.5 1.96768e-15 0.253677
29 1 4.13412e-14 0.5 0.228124
30 1 2.67218e-14 0.75 0.26673
31 1 0.5 0.5 0.253677
28 1 0.5 0.25 0.292018
32 1 0.5 0.75 0.292018
33 1 7.04965e-15 1.81632e-15 0.305651
37 1 2.02606e-15 0.5 0.305651
35 1 0.5 1 0.330432
39 1 0.5 0.5 0.330432
34 1 1 0.25 0.344421
36 1 0.5 0.25 0.368027
38 1 1 0.75 0.344421
40 1 0.5 0.75 0.368027
41 1 1 0.2 0.389625
45 1 1 0.7 0.389625
42 1 1 0.45 0.42722
43 1 0.5 0.2 0.413232
46 1 1 0.95 0.42722
47 1 0.5 0.7 0.413232
44 1 0.5 0.45 0.452003
48 1 0.5 0.95 0.452003
49 1 3.21997e-13 0.2 0.465633
51 1 0.5 0.2 0.490924
53 1 3.22135e-13 0.7 0.465633
55 1 0.5 0.7 0.490924
50 1 3.49101e-13 0.45 0.50397
52 1 0.5 0.45 0.529532
54 1 3.4897e-13 0.95 0.50397
56 1 0.5 0.95 0.529532
57 1 1 0.2 0.542403
61 1 1 0.7 0.542403
58 1 1 0.45 0.580863
59 1 0.5 0.2 0.568074
60 1 0.5 0.45 0.606581
62 1 1 0.95 0.580863
63 1 0.5 0.7 0.568074
64 1 0.5 0.95 0.606581
65 1 3.3317e-10 0.2 0.619281
66 1 3.61949e-10 0.45 0.657855
67 1 0.5 0.2 0.645138
69 1 3.3317e-10 0.7 0.619281
70 1 3.6195e-10 0.95 0.657855
71 1 0.5 0.7 0.645138
68 1 0.5 0.45 0.683369
72 1 0.5 0.95 0.683369
73 1 1 0.2 0.695851
77 1 1 0.7 0.695851
75 1 0.5 0.2 0.723323
79 1 0.5 0.7 0.723323
74 1 1 0.45 0.733495
76 1 0.5 0.45 0.759231
78 1 1 0.95 0.733495
80 1 0.5 0.95 0.759231
