ITEM: TIMESTEP
222
ITEM: NUMBER OF ATOMS
80
ITEM: BOX BOUNDS pp pp pp
0.0000000000000000e+00 4.6533240000000005e+00
0.0000000000000000e+00 5.8680000000000003e+00
0.0000000000000000e+00 6.5818347000000017e+01
ITEM: ATOMS id type xs ys zs
1 1 1 8.27786e-13 0
2 1 1 0.25 0.0350637
3 1 0.5 1 0.0222808
5 1 1 0.5 0
6 1 1 0.75 0.0350637
7 1 0.5 0.5 0.0222808
4 1 0.5 0.25 0.0612782
8 1 0.5 0.75 0.0612782
9 1 8.64103e-12 1 0.0744192
11 1 0.5 2.43689e-14 0.0995852
13 1 2.24414e-11 0.5 0.0744192
15 1 0.5 0.5 0.0995852
10 1 1.10166e-11 0.25 0.11255
12 1 0.5 0.25 0.138229
14 1 1.10165e-11 0.75 0.11255
16 1 0.5 0.75 0.138229
17 1 3.1065e-12 1 0.151034
21 1 1.88331e-12 0.5 0.151034
18 1 1 0.25 0.189513
19 1 0.5 2.27039e-15 0.176696
20 1 0.5 0.25 0.215158
22 1 1 0.75 0.189513
23 1 0.5 0.5 0.176696
24 1 0.5 0.75 0.215158
25 1 1 1 0.228035
26 1 2.61816e-14 0.25 0.266628
27 1 0.5 1.96768e-15 0.253584
29 1 4.13412e-14 0.5 0.228035
30 1 2.67218e-14 0.75 0.266628
31 1 0.5 0.5 0.253584
28 1 0.5 0.25 0.291903
32 1 0.5 0.75 0.291903
33 1 7.04965e-15 1.81632e-15 0.305543
37 1 2.02606e-15 0.5 0.305543
35 1 0.5 1 0.330304
39 1 0.5 0.5 0.330304
34 1 1 0.25 0.34426
36 1 0.5 0.25 0.367798
38 1 1 0.75 0.34426
40 1 0.5 0.75 0.367798
41 1 1 0.25 0.389844
45 1 1 0.75 0.389844
42 1 1 0.5 0.427337
43 1 0.5 0.25 0.413382
46 1 1 1.34559e-13 0.427337
47 1 0.5 0.75 0.413382
44 1 0.5 0.5 0.4521
48 1 0.5 1 0.4521
49 1 3.21997e-13 0.25 0.465737
51 1 0.5 0.25 0.491016
53 1 3.22135e-13 0.75 0.465737
55 1 0.5 0.75 0.491016
50 1 3.49101e-13 0.5 0.504053
52 1 0.5 0.5 0.529611
54 1 3.4897e-13 1 0.504053
56 1 0.5 1 0.529611
57 1 1 0.25 0.542471
61 1 1 0.75 0.542471
58 1 1 0.5 0.580916
59 1 0.5 0.25 0.568139
60 1 0.5 0.5 0.606633
62 1 1 1 0.580916
63 1 0.5 0.75 0.568139
64 1 0.5 3.19557e-11 0.606633
65 1 3.3317e-10 0.25 0.619321
66 1 3.61949e-10 0.5 0.657882
67 1 0.5 0.25 0.645176
69 1 3.3317e-10 0.75 0.619321
70 1 3.6195e-10 1 0.657882
71 1 0.5 0.75 0.645176
68 1 0.5 0.5 0.683394
72 1 0.5 9.83985e-10 0.683394
73 1 1 0.25 0.695865
77 1 1 0.75 0.695865
75 1 0.5 0.25 0.723331
79 1 0.5 0.75 0.723331
74 1 1 0.5 0.733495
76 1 0.5 0.5 0.759231
78 1 1 4.78247e-09 0.733495
80 1 0.5 1 0.759231
