ITEM: TIMESTEP
359
ITEM: NUMBER OF ATOMS
80
ITEM: BOX BOUNDS pp pp pp
0.0000000000000000e+00 4.6533240000000005e+00
0.0000000000000000e+00 5.8680000000000003e+00
0.0000000000000000e+00 6.5818347000000017e+01
ITEM: ATOMS id type xs ys zs
1 1 1 8.27786e-13 0
2 1 1 0.25 0.0352583
3 1 0.5 1 0.0224824
5 1 1 0.5 0
6 1 1 0.75 0.0352583
7 1 0.5 0.5 0.0224824
4 1 0.5 0.25 0.0616255
8 1 0.5 0.75 0.0616255
9 1 8.64103e-12 1 0.074931
11 1 0.5 2.43689e-14 0.100138
13 1 2.24414e-11 0.5 0.074931
15 1 0.5 0.5 0.100138
10 1 1.10166e-11 0.25 0.113318
12 1 0.5 0.25 0.139022
14 1 1.10165e-11 0.75 0.113318
16 1 0.5 0.75 0.139022
17 1 3.1065e-12 1 0.152059
21 1 1.88331e-12 0.5 0.152059
18 1 1 0.25 0.190765
19 1 0.5 2.27039e-15 0.177734
20 1 0.5 0.25 0.216455
22 1 1 0.75 0.190765
23 1 0.5 0.5 0.177734
24 1 0.5 0.75 0.216455
25 1 1 1 0.229502
26 1 2.61816e-14 0.25 0.268254
27 1 0.5 1.96768e-15 0.255151
29 1 4.13412e-14 0.5 0.229502
30 1 2.67218e-14 0.75 0.268254
31 1 0.5 0.5 0.255151
28 1 0.5 0.25 0.293832
32 1 0.5 0.75 0.293832
33 1 7.04965e-15 1.81632e-15 0.307179
37 1 2.02606e-15 0.5 0.307179
35 1 0.5 1 0.332453
39 1 0.5 0.5 0.332453
34 1 1 0.25 0.345909
36 1 0.5 0.25 0.370636
38 1 1 0.75 0.345909
40 1 0.5 0.75 0.370636
41 1 1 0.416667 0.387059
45 1 1 0.916667 0.387059
42 1 1 0.666667 0.425241
43 1 0.5 0.416667 0.411787
46 1 1 0.166667 0.425241
47 1 0.5 0.916667 0.411787
44 1 0.5 0.666667 0.450516
48 1 0.5 0.166667 0.450516
49 1 3.21997e-13 0.416667 0.463861
51 1 0.5 0.416667 0.489443
53 1 3.22135e-13 0.916667 0.463861
55 1 0.5 0.916667 0.489443
50 1 3.49101e-13 0.666667 0.502538
52 1 0.5 0.666667 0.528199
54 1 3.4897e-13 0.166667 0.502538
56 1 0.5 0.166667 0.528199
57 1 1 0.416667 0.541226
61 1 1 0.916667 0.541226
58 1 1 0.666667 0.579931
59 1 0.5 0.416667 0.566945
60 1 0.5 0.666667 0.605665
62 1 1 0.166667 0.579931
63 1 0.5 0.916667 0.566945
64 1 0.5 0.166667 0.605665
65 1 3.3317e-10 0.416667 0.618579
66 1 3.61949e-10 0.666667 0.657382
67 1 0.5 0.416667 0.64446
69 1 3.3317e-10 0.916667 0.618579
70 1 3.6195e-10 0.166667 0.657382
71 1 0.5 0.916667 0.64446
68 1 0.5 0.666667 0.682909
72 1 0.5 0.166667 0.682909
73 1 1 0.416667 0.695596
77 1 1 0.916667 0.695596
75 1 0.5 0.416667 0.723167
79 1 0.5 0.916667 0.723167
74 1 1 0.666667 0.733495
76 1 0.5 0.666667 0.759231
78 1 1 0.166667 0.733495
80 1 0.5 0.166667 0.759231
