ITEM: TIMESTEP
253
ITEM: NUMBER OF ATOMS
80
ITEM: BOX BOUNDS pp pp pp
0.0000000000000000e+00 4.6533240000000005e+00
0.0000000000000000e+00 5.8680000000000003e+00
0.0000000000000000e+00 6.5818347000000017e+01
ITEM: ATOMS id type xs ys zs
1 1 1 8.27786e-13 0
2 1 1 0.25 0.0350748
3 1 0.5 1 0.0222923
5 1 1 0.5 0
6 1 1 0.75 0.0350748
7 1 0.5 0.5 0.0222923
4 1 0.5 0.25 0.0612979
8 1 0.5 0.75 0.0612979
9 1 8.64103e-12 1 0.0744472
11 1 0.5 2.43689e-14 0.0996157
13 1 2.24414e-11 0.5 0.0744472
15 1 0.5 0.5 0.0996157
10 1 1.10166e-11 0.25 0.112591
12 1 0.5 0.25 0.138273
14 1 1.10165e-11 0.75 0.112591
16 1 0.5 0.75 0.138273
17 1 3.1065e-12 1 0.15109
21 1 1.88331e-12 0.5 0.15109
18 1 1 0.25 0.189582
19 1 0.5 2.27039e-15 0.176753
20 1 0.5 0.25 0.215229
22 1 1 0.75 0.189582
23 1 0.5 0.5 0.176753
24 1 0.5 0.75 0.215229
25 1 1 1 0.228118
26 1 2.61816e-14 0.25 0.266724
27 1 0.5 1.96768e-15 0.253671
29 1 4.13412e-14 0.5 0.228118
30 1 2.67218e-14 0.75 0.266724
31 1 0.5 0.5 0.253671
28 1 0.5 0.25 0.292011
32 1 0.5 0.75 0.292011
33 1 7.04965e-15 1.81632e-15 0.305644
37 1 2.02606e-15 0.5 0.305644
35 1 0.5 1 0.330425
39 1 0.5 0.5 0.330425
34 1 1 0.25 0.344414
36 1 0.5 0.25 0.368021
38 1 1 0.75 0.344414
40 1 0.5 0.75 0.368021
41 1 1 0.3 0.389618
45 1 1 0.8 0.389618
42 1 1 0.55 0.427213
43 1 0.5 0.3 0.413225
46 1 1 0.05 0.427213
47 1 0.5 0.8 0.413225
44 1 0.5 0.55 0.451996
48 1 0.5 0.05 0.451996
49 1 3.21997e-13 0.3 0.465626
51 1 0.5 0.3 0.490917
53 1 3.22135e-13 0.8 0.465626
55 1 0.5 0.8 0.490917
50 1 3.49101e-13 0.55 0.503963
52 1 0.5 0.55 0.529525
54 1 3.4897e-13 0.05 0.503963
56 1 0.5 0.05 0.529525
57 1 1 0.3 0.542397
61 1 1 0.8 0.542397
58 1 1 0.55 0.580857
59 1 0.5 0.3 0.568068
60 1 0.5 0.55 0.606576
62 1 1 0.05 0.580857
63 1 0.5 0.8 0.568068
64 1 0.5 0.05 0.606576
65 1 3.3317e-10 0.3 0.619277
66 1 3.61949e-10 0.55 0.657852
67 1 0.5 0.3 0.645133
69 1 3.3317e-10 0.8 0.619277
70 1 3.6195e-10 0.05 0.657852
71 1 0.5 0.8 0.645133
68 1 0.5 0.55 0.683366
72 1 0.5 0.05 0.683366
73 1 1 0.3 0.69585
77 1 1 0.8 0.69585
75 1 0.5 0.3 0.723321
79 1 0.5 0.8 0.723321
74 1 1 0.55 0.733495
76 1 0.5 0.55 0.759231
78 1 1 0.05 0.733495
80 1 0.5 0.05 0.759231
