ITEM: TIMESTEP
462
ITEM: NUMBER OF ATOMS
80
ITEM: BOX BOUNDS pp pp pp
0.0000000000000000e+00 5.6825487348095471e+00
0.0000000000000000e+00 7.1176886540000002e+00
0.0000000000000000e+00 7.6640963165803498e+01
ITEM: ATOMS id type xs ys zs
1 1 0 0 0
2 1 1 0.25 0.0298381
5 1 0 0.5 0
6 1 1 0.75 0.0298381
3 1 0.379583 3.54825e-05 0.176654
7 1 0.379583 0.499965 0.176654
4 1 0.371121 0.25 0.207214
8 1 0.371125 0.75 0.207211
9 1 0.872585 1.44325e-05 0.201686
13 1 0.872585 0.499986 0.201686
10 1 0.998558 0.25 0.236586
11 1 0.508938 0.999993 0.23734
14 1 0.998565 0.75 0.236584
15 1 0.508938 0.500007 0.23734
12 1 0.370932 0.25 0.269253
16 1 0.370928 0.75 0.269253
17 1 0.872594 0.999996 0.269674
18 1 0.00298213 0.25 0.302282
19 1 0.502471 3.95406e-07 0.302082
21 1 0.872594 0.500004 0.269674
22 1 0.00298131 0.75 0.302283
23 1 0.502471 0.5 0.302082
20 1 0.37193 0.25 0.334886
24 1 0.371931 0.75 0.334886
25 1 0.871633 1.23872e-06 0.33493
29 1 0.871633 0.499999 0.33493
26 1 0.00270522 0.25 0.367611
27 1 0.502693 2.29395e-07 0.367655
30 1 0.00270502 0.75 0.36761
31 1 0.502693 0.5 0.367655
28 1 0.371773 0.25 0.400642
32 1 0.371772 0.75 0.400642
33 1 0.871804 1 0.400044
37 1 0.871804 0.5 0.400044
34 1 0.00269307 0.25 0.432415
35 1 0.502702 1 0.433748
38 1 0.00269323 0.75 0.432415
39 1 0.502702 0.5 0.433748
36 1 0.3718 0.25 0.466076
40 1 0.3718 0.75 0.466076
41 1 0.871798 0.116667 0.467549
45 1 0.871798 0.616667 0.467549
42 1 0.00269917 0.366667 0.499876
43 1 0.502697 0.116667 0.501211
46 1 0.0026991 0.866667 0.499876
47 1 0.502697 0.616667 0.501211
44 1 0.371776 0.366667 0.53358
48 1 0.371776 0.866667 0.53358
49 1 0.871783 0.116667 0.532986
50 1 0.00267534 0.366667 0.565986
51 1 0.502698 0.116667 0.566004
53 1 0.871783 0.616667 0.532986
54 1 0.00267536 0.866667 0.565986
55 1 0.502698 0.616667 0.566004
52 1 0.371784 0.366667 0.598688
56 1 0.371784 0.866667 0.598688
57 1 0.871773 0.116667 0.598752
61 1 0.871773 0.616667 0.598752
58 1 0.00280372 0.366667 0.631456
59 1 0.502578 0.116667 0.631442
62 1 0.00280372 0.866667 0.631456
63 1 0.502578 0.616667 0.631442
60 1 0.371965 0.366667 0.664249
64 1 0.371965 0.866667 0.664249
65 1 0.87158 0.116667 0.664105
69 1 0.87158 0.616667 0.664105
66 1 0.00207867 0.366667 0.696744
67 1 0.503324 0.116667 0.697059
70 1 0.00207867 0.866667 0.696744
71 1 0.503324 0.616667 0.697059
68 1 0.367415 0.366667 0.729186
72 1 0.367415 0.866667 0.729186
73 1 0.875288 0.116667 0.72977
77 1 0.875288 0.616667 0.72977
74 1 0 0.366667 0.764068
75 1 0.501436 0.116667 0.759866
78 1 0 0.866667 0.764068
79 1 0.501436 0.616667 0.759866
76 1 0.5 0.366667 0.790877
80 1 0.5 0.866667 0.790877
