ITEM: TIMESTEP
212
ITEM: NUMBER OF ATOMS
80
ITEM: BOX BOUNDS pp pp pp
0.0000000000000000e+00 4.6533240000000005e+00
0.0000000000000000e+00 5.8680000000000003e+00
0.0000000000000000e+00 6.5818347000000017e+01
ITEM: ATOMS id type xs ys zs
1 1 1 8.27786e-13 0
2 1 1 0.25 0.0350616
3 1 0.5 1 0.0222789
5 1 1 0.5 0
6 1 1 0.75 0.0350616
7 1 0.5 0.5 0.0222789
4 1 0.5 0.25 0.0612746
8 1 0.5 0.75 0.0612746
9 1 8.64103e-12 1 0.0744134
11 1 0.5 2.43689e-14 0.0995793
13 1 2.24414e-11 0.5 0.0744134
15 1 0.5 0.5 0.0995793
10 1 1.10166e-11 0.25 0.112541
12 1 0.5 0.25 0.13822
14 1 1.10165e-11 0.75 0.112541
16 1 0.5 0.75 0.13822
17 1 3.1065e-12 1 0.151022
21 1 1.88331e-12 0.5 0.151022
18 1 1 0.25 0.189498
19 1 0.5 2.27039e-15 0.176684
20 1 0.5 0.25 0.215144
22 1 1 0.75 0.189498
23 1 0.5 0.5 0.176684
24 1 0.5 0.75 0.215144
25 1 1 1 0.228015
26 1 2.61816e-14 0.25 0.266604
27 1 0.5 1.96768e-15 0.253568
29 1 4.13412e-14 0.5 0.228015
30 1 2.67218e-14 0.75 0.266604
31 1 0.5 0.5 0.253568
28 1 0.5 0.25 0.291884
32 1 0.5 0.75 0.291884
33 1 7.04965e-15 1.81632e-15 0.30551
37 1 2.02606e-15 0.5 0.30551
35 1 0.5 1 0.330291
39 1 0.5 0.5 0.330291
34 1 1 0.25 0.34422
36 1 0.5 0.25 0.367794
38 1 1 0.75 0.34422
40 1 0.5 0.75 0.367794
41 1 1 0.233333 0.389851
45 1 1 0.733333 0.389851
42 1 1 0.483333 0.427353
43 1 0.5 0.233333 0.413425
46 1 1 0.983333 0.427353
47 1 0.5 0.733333 0.413425
44 1 0.5 0.483333 0.452136
48 1 0.5 0.983333 0.452136
49 1 3.21997e-13 0.233333 0.465758
51 1 0.5 0.233333 0.491043
53 1 3.22135e-13 0.733333 0.465758
55 1 0.5 0.733333 0.491043
50 1 3.49101e-13 0.483333 0.504071
52 1 0.5 0.483333 0.529633
54 1 3.4897e-13 0.983333 0.504071
56 1 0.5 0.983333 0.529633
57 1 1 0.233333 0.542487
61 1 1 0.733333 0.542487
58 1 1 0.483333 0.58093
59 1 0.5 0.233333 0.568157
60 1 0.5 0.483333 0.606647
62 1 1 0.983333 0.58093
63 1 0.5 0.733333 0.568157
64 1 0.5 0.983333 0.606647
65 1 3.3317e-10 0.233333 0.619332
66 1 3.61949e-10 0.483333 0.657889
67 1 0.5 0.233333 0.645186
69 1 3.3317e-10 0.733333 0.619332
70 1 3.6195e-10 0.983333 0.657889
71 1 0.5 0.733333 0.645186
68 1 0.5 0.483333 0.683401
72 1 0.5 0.983333 0.683401
73 1 1 0.233333 0.695869
77 1 1 0.733333 0.695869
75 1 0.5 0.233333 0.723334
79 1 0.5 0.733333 0.723334
74 1 1 0.483333 0.733495
76 1 0.5 0.483333 0.759231
78 1 1 0.983333 0.733495
80 1 0.5 0.983333 0.759231
