ITEM: TIMESTEP
867
ITEM: NUMBER OF ATOMS
80
ITEM: BOX BOUNDS pp pp pp
0.0000000000000000e+00 5.6825487348095471e+00
0.0000000000000000e+00 7.1176886540000002e+00
0.0000000000000000e+00 7.6640963165803498e+01
ITEM: ATOMS id type xs ys zs
1 1 0 0 0
2 1 1 0.25 0.0298381
5 1 0 0.5 0
6 1 1 0.75 0.0298381
3 1 0.379583 3.54825e-05 0.177226
7 1 0.379583 0.499965 0.177226
4 1 0.371121 0.25 0.207787
8 1 0.371125 0.75 0.207784
9 1 0.872585 1.44325e-05 0.202259
13 1 0.872585 0.499986 0.202259
10 1 0.998558 0.25 0.237158
11 1 0.508938 0.999993 0.237913
14 1 0.998565 0.75 0.237157
15 1 0.508938 0.500007 0.237913
12 1 0.370932 0.25 0.269825
16 1 0.370928 0.75 0.269826
17 1 0.872594 0.999996 0.270246
18 1 0.00298213 0.25 0.302853
19 1 0.502471 3.95406e-07 0.302656
21 1 0.872594 0.500004 0.270246
22 1 0.00298131 0.75 0.302854
23 1 0.502471 0.5 0.302656
20 1 0.37193 0.25 0.335464
24 1 0.371931 0.75 0.335464
25 1 0.871633 1.23872e-06 0.335497
29 1 0.871633 0.499999 0.335497
26 1 0.00270522 0.25 0.368182
27 1 0.502693 2.29395e-07 0.36823
30 1 0.00270502 0.75 0.368182
31 1 0.502693 0.5 0.36823
28 1 0.371773 0.25 0.40116
32 1 0.371772 0.75 0.40116
33 1 0.871804 1 0.40069
37 1 0.871804 0.5 0.40069
34 1 0.00269307 0.25 0.433178
35 1 0.502702 1 0.434113
38 1 0.00269323 0.75 0.433178
39 1 0.502702 0.5 0.434113
36 1 0.3718 0.25 0.466547
40 1 0.3718 0.75 0.466547
41 1 0.871798 0.4 0.467649
45 1 0.871798 0.9 0.467649
42 1 0.00269917 0.65 0.500082
43 1 0.502697 0.4 0.501018
46 1 0.0026991 0.15 0.500082
47 1 0.502697 0.9 0.501018
44 1 0.371776 0.65 0.533505
48 1 0.371776 0.15 0.533505
49 1 0.871783 0.4 0.533039
50 1 0.00267534 0.65 0.565982
51 1 0.502698 0.4 0.566004
53 1 0.871783 0.9 0.533039
54 1 0.00267536 0.15 0.565982
55 1 0.502698 0.9 0.566004
52 1 0.371784 0.65 0.598694
56 1 0.371784 0.15 0.598694
57 1 0.871773 0.4 0.598746
61 1 0.871773 0.9 0.598746
58 1 0.00280372 0.65 0.631455
59 1 0.502578 0.4 0.631443
62 1 0.00280372 0.15 0.631455
63 1 0.502578 0.9 0.631443
60 1 0.371965 0.65 0.664249
64 1 0.371965 0.15 0.664249
65 1 0.87158 0.4 0.664106
69 1 0.87158 0.9 0.664106
66 1 0.00207867 0.65 0.696744
67 1 0.503324 0.4 0.697059
70 1 0.00207867 0.15 0.696744
71 1 0.503324 0.9 0.697059
68 1 0.367415 0.65 0.729186
72 1 0.367415 0.15 0.729186
73 1 0.875288 0.4 0.72977
77 1 0.875288 0.9 0.72977
74 1 0 0.65 0.764068
75 1 0.501436 0.4 0.759866
78 1 0 0.15 0.764068
79 1 0.501436 0.9 0.759866
76 1 0.5 0.65 0.790877
80 1 0.5 0.15 0.790877
