ITEM: TIMESTEP
166
ITEM: NUMBER OF ATOMS
80
ITEM: BOX BOUNDS pp pp pp
0.0000000000000000e+00 4.6533240000000005e+00
0.0000000000000000e+00 5.8680000000000003e+00
0.0000000000000000e+00 6.5818347000000017e+01
ITEM: ATOMS id type xs ys zs
1 1 1 8.27786e-13 0
2 1 1 0.25 0.0351027
3 1 0.5 1 0.022321
5 1 1 0.5 0
6 1 1 0.75 0.0351027
7 1 0.5 0.5 0.022321
4 1 0.5 0.25 0.0613474
8 1 0.5 0.75 0.0613474
9 1 8.64103e-12 1 0.0745191
11 1 0.5 2.43689e-14 0.0996937
13 1 2.24414e-11 0.5 0.0745191
15 1 0.5 0.5 0.0996937
10 1 1.10166e-11 0.25 0.112697
12 1 0.5 0.25 0.138385
14 1 1.10165e-11 0.75 0.112697
16 1 0.5 0.75 0.138385
17 1 3.1065e-12 1 0.151233
21 1 1.88331e-12 0.5 0.151233
18 1 1 0.25 0.189757
19 1 0.5 2.27039e-15 0.1769
20 1 0.5 0.25 0.215412
22 1 1 0.75 0.189757
23 1 0.5 0.5 0.1769
24 1 0.5 0.75 0.215412
25 1 1 1 0.228323
26 1 2.61816e-14 0.25 0.266953
27 1 0.5 1.96768e-15 0.253893
29 1 4.13412e-14 0.5 0.228323
30 1 2.67218e-14 0.75 0.266953
31 1 0.5 0.5 0.253893
28 1 0.5 0.25 0.292288
32 1 0.5 0.75 0.292288
33 1 7.04965e-15 1.81632e-15 0.305873
37 1 2.02606e-15 0.5 0.305873
35 1 0.5 1 0.330733
39 1 0.5 0.5 0.330733
34 1 1 0.25 0.34465
36 1 0.5 0.25 0.368472
38 1 1 0.75 0.34465
40 1 0.5 0.75 0.368472
41 1 1 0.166667 0.389191
45 1 1 0.666667 0.389191
42 1 1 0.416667 0.426929
43 1 0.5 0.166667 0.413014
46 1 1 0.916667 0.426929
47 1 0.5 0.666667 0.413014
44 1 0.5 0.416667 0.451791
48 1 0.5 0.916667 0.451791
49 1 3.21997e-13 0.166667 0.465371
51 1 0.5 0.166667 0.49071
53 1 3.22135e-13 0.666667 0.465371
55 1 0.5 0.666667 0.49071
50 1 3.49101e-13 0.416667 0.503761
52 1 0.5 0.416667 0.52934
54 1 3.4897e-13 0.916667 0.503761
56 1 0.5 0.916667 0.52934
57 1 1 0.166667 0.542233
61 1 1 0.666667 0.542233
58 1 1 0.416667 0.580728
59 1 0.5 0.166667 0.567912
60 1 0.5 0.416667 0.60645
62 1 1 0.916667 0.580728
63 1 0.5 0.666667 0.567912
64 1 0.5 0.916667 0.60645
65 1 3.3317e-10 0.166667 0.61918
66 1 3.61949e-10 0.416667 0.657787
67 1 0.5 0.166667 0.645041
69 1 3.3317e-10 0.666667 0.61918
70 1 3.6195e-10 0.916667 0.657787
71 1 0.5 0.666667 0.645041
68 1 0.5 0.416667 0.683305
72 1 0.5 0.916667 0.683305
73 1 1 0.166667 0.695815
77 1 1 0.666667 0.695815
75 1 0.5 0.166667 0.7233
79 1 0.5 0.666667 0.7233
74 1 1 0.416667 0.733495
76 1 0.5 0.416667 0.759231
78 1 1 0.916667 0.733495
80 1 0.5 0.916667 0.759231
