ITEM: TIMESTEP
391
ITEM: NUMBER OF ATOMS
80
ITEM: BOX BOUNDS pp pp pp
0.0000000000000000e+00 4.6533240000000005e+00
0.0000000000000000e+00 5.8680000000000003e+00
0.0000000000000000e+00 6.5818347000000017e+01
ITEM: ATOMS id type xs ys zs
1 1 1 8.27786e-13 0
2 1 1 0.25 0.0353237
3 1 0.5 1 0.0225529
5 1 1 0.5 0
6 1 1 0.75 0.0353237
7 1 0.5 0.5 0.0225529
4 1 0.5 0.25 0.0617436
8 1 0.5 0.75 0.0617436
9 1 8.64103e-12 1 0.0751101
11 1 0.5 2.43689e-14 0.100329
13 1 2.24414e-11 0.5 0.0751101
15 1 0.5 0.5 0.100329
10 1 1.10166e-11 0.25 0.11359
12 1 0.5 0.25 0.139294
14 1 1.10165e-11 0.75 0.11359
16 1 0.5 0.75 0.139294
17 1 3.1065e-12 1 0.152416
21 1 1.88331e-12 0.5 0.152416
18 1 1 0.25 0.191201
19 1 0.5 2.27039e-15 0.178094
20 1 0.5 0.25 0.216904
22 1 1 0.75 0.191201
23 1 0.5 0.5 0.178094
24 1 0.5 0.75 0.216904
25 1 1 1 0.230002
26 1 2.61816e-14 0.25 0.268808
27 1 0.5 1.96768e-15 0.255703
29 1 4.13412e-14 0.5 0.230002
30 1 2.67218e-14 0.75 0.268808
31 1 0.5 0.5 0.255703
28 1 0.5 0.25 0.294485
32 1 0.5 0.75 0.294485
33 1 7.04965e-15 1.81632e-15 0.307664
37 1 2.02606e-15 0.5 0.307664
35 1 0.5 1 0.333286
39 1 0.5 0.5 0.333286
34 1 1 0.25 0.346415
36 1 0.5 0.25 0.371795
38 1 1 0.75 0.346415
40 1 0.5 0.75 0.371795
41 1 1 0.45 0.385916
45 1 1 0.95 0.385916
42 1 1 0.7 0.424425
43 1 0.5 0.45 0.411297
46 1 1 0.2 0.424425
47 1 0.5 0.95 0.411297
44 1 0.5 0.7 0.45005
48 1 0.5 0.2 0.45005
49 1 3.21997e-13 0.45 0.463227
51 1 0.5 0.45 0.488908
53 1 3.22135e-13 0.95 0.463227
55 1 0.5 0.95 0.488908
50 1 3.49101e-13 0.7 0.502006
52 1 0.5 0.7 0.527718
54 1 3.4897e-13 0.2 0.502006
56 1 0.5 0.2 0.527718
57 1 1 0.45 0.540797
61 1 1 0.95 0.540797
58 1 1 0.7 0.57959
59 1 0.5 0.45 0.566529
60 1 0.5 0.7 0.605326
62 1 1 0.2 0.57959
63 1 0.5 0.95 0.566529
64 1 0.5 0.2 0.605326
65 1 3.3317e-10 0.45 0.618323
66 1 3.61949e-10 0.7 0.657208
67 1 0.5 0.45 0.644208
69 1 3.3317e-10 0.95 0.618323
70 1 3.6195e-10 0.2 0.657208
71 1 0.5 0.95 0.644208
68 1 0.5 0.7 0.682732
72 1 0.5 0.2 0.682732
73 1 1 0.45 0.695499
77 1 1 0.95 0.695499
75 1 0.5 0.45 0.72311
79 1 0.5 0.95 0.72311
74 1 1 0.7 0.733495
76 1 0.5 0.7 0.759231
78 1 1 0.2 0.733495
80 1 0.5 0.2 0.759231
