ITEM: TIMESTEP
892
ITEM: NUMBER OF ATOMS
80
ITEM: BOX BOUNDS pp pp pp
0.0000000000000000e+00 5.6825487348095471e+00
0.0000000000000000e+00 7.1176886540000002e+00
0.0000000000000000e+00 7.6640963165803498e+01
ITEM: ATOMS id type xs ys zs
1 1 0 0 0
2 1 1 0.25 0.0298381
5 1 0 0.5 0
6 1 1 0.75 0.0298381
3 1 0.379583 3.54825e-05 0.177847
7 1 0.379583 0.499965 0.177847
4 1 0.371121 0.25 0.208408
8 1 0.371125 0.75 0.208405
9 1 0.872585 1.44325e-05 0.202879
13 1 0.872585 0.499986 0.202879
10 1 0.998558 0.25 0.237779
11 1 0.508938 0.999993 0.238534
14 1 0.998565 0.75 0.237778
15 1 0.508938 0.500007 0.238534
12 1 0.370932 0.25 0.270446
16 1 0.370928 0.75 0.270446
17 1 0.872594 0.999996 0.270867
18 1 0.00298213 0.25 0.303473
19 1 0.502471 3.95406e-07 0.303278
21 1 0.872594 0.500004 0.270867
22 1 0.00298131 0.75 0.303473
23 1 0.502471 0.5 0.303278
20 1 0.37193 0.25 0.336091
24 1 0.371931 0.75 0.336091
25 1 0.871633 1.23872e-06 0.336112
29 1 0.871633 0.499999 0.336112
26 1 0.00270522 0.25 0.368805
27 1 0.502693 2.29395e-07 0.368851
30 1 0.00270502 0.75 0.368805
31 1 0.502693 0.5 0.368851
28 1 0.371773 0.25 0.401716
32 1 0.371772 0.75 0.401715
33 1 0.871804 1 0.40139
37 1 0.871804 0.5 0.40139
34 1 0.00269307 0.25 0.433971
35 1 0.502702 1 0.434541
38 1 0.00269323 0.75 0.433971
39 1 0.502702 0.5 0.434541
36 1 0.3718 0.25 0.467055
40 1 0.3718 0.75 0.467055
41 1 0.871798 0.416667 0.467762
45 1 0.871798 0.916667 0.467763
42 1 0.00269917 0.666667 0.500276
43 1 0.502697 0.416667 0.500848
46 1 0.0026991 0.166667 0.500276
47 1 0.502697 0.916667 0.500848
44 1 0.371776 0.666667 0.533427
48 1 0.371776 0.166667 0.533427
49 1 0.871783 0.416667 0.533105
50 1 0.00267534 0.666667 0.565982
51 1 0.502698 0.416667 0.566002
53 1 0.871783 0.916667 0.533105
54 1 0.00267536 0.166667 0.565982
55 1 0.502698 0.916667 0.566002
52 1 0.371784 0.666667 0.5987
56 1 0.371784 0.166667 0.5987
57 1 0.871773 0.416667 0.59874
61 1 0.871773 0.916667 0.59874
58 1 0.00280372 0.666667 0.631453
59 1 0.502578 0.416667 0.631445
62 1 0.00280372 0.166667 0.631453
63 1 0.502578 0.916667 0.631445
60 1 0.371965 0.666667 0.664249
64 1 0.371965 0.166667 0.664249
65 1 0.87158 0.416667 0.664106
69 1 0.87158 0.916667 0.664106
66 1 0.00207867 0.666667 0.696744
67 1 0.503324 0.416667 0.697059
70 1 0.00207867 0.166667 0.696744
71 1 0.503324 0.916667 0.697059
68 1 0.367415 0.666667 0.729186
72 1 0.367415 0.166667 0.729186
73 1 0.875288 0.416667 0.72977
77 1 0.875288 0.916667 0.72977
74 1 0 0.666667 0.764068
75 1 0.501436 0.416667 0.759866
78 1 0 0.166667 0.764068
79 1 0.501436 0.916667 0.759866
76 1 0.5 0.666667 0.790877
80 1 0.5 0.166667 0.790877
