ITEM: TIMESTEP
345
ITEM: NUMBER OF ATOMS
80
ITEM: BOX BOUNDS pp pp pp
0.0000000000000000e+00 4.6533240000000005e+00
0.0000000000000000e+00 5.8680000000000003e+00
0.0000000000000000e+00 6.5818347000000017e+01
ITEM: ATOMS id type xs ys zs
1 1 1 8.27786e-13 0
2 1 1 0.25 0.0352245
3 1 0.5 1 0.0224464
5 1 1 0.5 0
6 1 1 0.75 0.0352245
7 1 0.5 0.5 0.0224464
4 1 0.5 0.25 0.0615646
8 1 0.5 0.75 0.0615646
9 1 8.64103e-12 1 0.0748389
11 1 0.5 2.43689e-14 0.100039
13 1 2.24414e-11 0.5 0.0748389
15 1 0.5 0.5 0.100039
10 1 1.10166e-11 0.25 0.113178
12 1 0.5 0.25 0.138881
14 1 1.10165e-11 0.75 0.113178
16 1 0.5 0.75 0.138881
17 1 3.1065e-12 1 0.151875
21 1 1.88331e-12 0.5 0.151875
18 1 1 0.25 0.190542
19 1 0.5 2.27039e-15 0.177549
20 1 0.5 0.25 0.216225
22 1 1 0.75 0.190542
23 1 0.5 0.5 0.177549
24 1 0.5 0.75 0.216225
25 1 1 1 0.229242
26 1 2.61816e-14 0.25 0.267967
27 1 0.5 1.96768e-15 0.254872
29 1 4.13412e-14 0.5 0.229242
30 1 2.67218e-14 0.75 0.267967
31 1 0.5 0.5 0.254872
28 1 0.5 0.25 0.293496
32 1 0.5 0.75 0.293496
33 1 7.04965e-15 1.81632e-15 0.306905
37 1 2.02606e-15 0.5 0.306905
35 1 0.5 1 0.33205
39 1 0.5 0.5 0.33205
34 1 1 0.25 0.34563
36 1 0.5 0.25 0.370134
38 1 1 0.75 0.34563
40 1 0.5 0.75 0.370134
41 1 1 0.4 0.38756
45 1 1 0.9 0.38756
42 1 1 0.65 0.425642
43 1 0.5 0.4 0.412064
46 1 1 0.15 0.425642
47 1 0.5 0.9 0.412064
44 1 0.5 0.65 0.45079
48 1 0.5 0.15 0.45079
49 1 3.21997e-13 0.4 0.464196
51 1 0.5 0.4 0.489729
53 1 3.22135e-13 0.9 0.464196
55 1 0.5 0.9 0.489729
50 1 3.49101e-13 0.65 0.502816
52 1 0.5 0.65 0.528456
54 1 3.4897e-13 0.15 0.502816
56 1 0.5 0.15 0.528456
57 1 1 0.4 0.541454
61 1 1 0.9 0.541454
58 1 1 0.65 0.580112
59 1 0.5 0.4 0.567164
60 1 0.5 0.65 0.605845
62 1 1 0.15 0.580112
63 1 0.5 0.9 0.567164
64 1 0.5 0.15 0.605845
65 1 3.3317e-10 0.4 0.618716
66 1 3.61949e-10 0.65 0.657474
67 1 0.5 0.4 0.644593
69 1 3.3317e-10 0.9 0.618716
70 1 3.6195e-10 0.15 0.657474
71 1 0.5 0.9 0.644593
68 1 0.5 0.65 0.683002
72 1 0.5 0.15 0.683002
73 1 1 0.4 0.695647
77 1 1 0.9 0.695647
75 1 0.5 0.4 0.723197
79 1 0.5 0.9 0.723197
74 1 1 0.65 0.733495
76 1 0.5 0.65 0.759231
78 1 1 0.15 0.733495
80 1 0.5 0.15 0.759231
