ITEM: TIMESTEP
31
ITEM: NUMBER OF ATOMS
80
ITEM: BOX BOUNDS pp pp pp
0.0000000000000000e+00 4.6533240000000005e+00
0.0000000000000000e+00 5.8680000000000003e+00
0.0000000000000000e+00 6.5818347000000017e+01
ITEM: ATOMS id type xs ys zs
1 1 1 8.27786e-13 0
2 1 1 0.25 0.0353403
3 1 0.5 1 0.0225712
5 1 1 0.5 0
6 1 1 0.75 0.0353403
7 1 0.5 0.5 0.0225712
4 1 0.5 0.25 0.0617737
8 1 0.5 0.75 0.0617737
9 1 8.64103e-12 1 0.0751563
11 1 0.5 2.43689e-14 0.100379
13 1 2.24414e-11 0.5 0.0751563
15 1 0.5 0.5 0.100379
10 1 1.10166e-11 0.25 0.11366
12 1 0.5 0.25 0.139364
14 1 1.10165e-11 0.75 0.11366
16 1 0.5 0.75 0.139364
17 1 3.1065e-12 1 0.152507
21 1 1.88331e-12 0.5 0.152507
18 1 1 0.25 0.191311
19 1 0.5 2.27039e-15 0.178186
20 1 0.5 0.25 0.217019
22 1 1 0.75 0.191311
23 1 0.5 0.5 0.178186
24 1 0.5 0.75 0.217019
25 1 1 1 0.230127
26 1 2.61816e-14 0.25 0.268946
27 1 0.5 1.96768e-15 0.255844
29 1 4.13412e-14 0.5 0.230127
30 1 2.67218e-14 0.75 0.268946
31 1 0.5 0.5 0.255844
28 1 0.5 0.25 0.294663
32 1 0.5 0.75 0.294663
33 1 7.04965e-15 1.81632e-15 0.307766
37 1 2.02606e-15 0.5 0.307766
34 1 1 0.25 0.346569
35 1 0.5 1 0.33349
36 1 0.5 0.25 0.372269
38 1 1 0.75 0.346569
39 1 0.5 0.5 0.33349
40 1 0.5 0.75 0.372269
41 1 1 0.0166667 0.385452
45 1 1 0.516667 0.385452
42 1 1 0.266667 0.424231
43 1 0.5 0.0166667 0.411153
46 1 1 0.766667 0.424231
47 1 0.5 0.516667 0.411153
44 1 0.5 0.266667 0.449957
48 1 0.5 0.766667 0.449957
49 1 3.21997e-13 0.0166667 0.463057
51 1 0.5 0.0166667 0.488778
53 1 3.22135e-13 0.516667 0.463057
55 1 0.5 0.516667 0.488778
50 1 3.49101e-13 0.266667 0.501872
52 1 0.5 0.266667 0.5276
54 1 3.4897e-13 0.766667 0.501872
56 1 0.5 0.766667 0.5276
57 1 1 0.0166667 0.540688
61 1 1 0.516667 0.540688
58 1 1 0.266667 0.579504
59 1 0.5 0.0166667 0.566424
60 1 0.5 0.266667 0.60524
62 1 1 0.766667 0.579504
63 1 0.5 0.516667 0.566424
64 1 0.5 0.766667 0.60524
65 1 3.3317e-10 0.0166667 0.618258
66 1 3.61949e-10 0.266667 0.657164
67 1 0.5 0.0166667 0.644143
69 1 3.3317e-10 0.516667 0.618258
70 1 3.6195e-10 0.766667 0.657164
71 1 0.5 0.516667 0.644143
68 1 0.5 0.266667 0.682687
72 1 0.5 0.766667 0.682687
73 1 1 0.0166667 0.695474
77 1 1 0.516667 0.695474
75 1 0.5 0.0166667 0.723095
79 1 0.5 0.516667 0.723095
74 1 1 0.266667 0.733495
76 1 0.5 0.266667 0.759231
78 1 1 0.766667 0.733495
80 1 0.5 0.766667 0.759231
