ITEM: TIMESTEP
614
ITEM: NUMBER OF ATOMS
80
ITEM: BOX BOUNDS pp pp pp
0.0000000000000000e+00 5.6825487348095471e+00
0.0000000000000000e+00 7.1176886540000002e+00
0.0000000000000000e+00 7.6640963165803498e+01
ITEM: ATOMS id type xs ys zs
1 1 0 0 0
2 1 1 0.25 0.0298381
5 1 0 0.5 0
6 1 1 0.75 0.0298381
3 1 0.379583 3.54825e-05 0.174907
7 1 0.379583 0.499965 0.174907
4 1 0.371121 0.25 0.205468
8 1 0.371125 0.75 0.205464
9 1 0.872585 1.44325e-05 0.199939
13 1 0.872585 0.499986 0.199939
10 1 0.998558 0.25 0.234839
11 1 0.508938 0.999993 0.235594
14 1 0.998565 0.75 0.234837
15 1 0.508938 0.500007 0.235594
12 1 0.370932 0.25 0.267507
16 1 0.370928 0.75 0.267507
17 1 0.872594 0.999996 0.267927
18 1 0.00298213 0.25 0.300536
19 1 0.502471 3.95406e-07 0.300336
21 1 0.872594 0.500004 0.267927
22 1 0.00298131 0.75 0.300537
23 1 0.502471 0.5 0.300336
20 1 0.37193 0.25 0.333132
24 1 0.371931 0.75 0.333132
25 1 0.871633 1.23872e-06 0.333193
29 1 0.871633 0.499999 0.333193
26 1 0.00270522 0.25 0.36588
27 1 0.502693 2.29395e-07 0.365892
30 1 0.00270502 0.75 0.36588
31 1 0.502693 0.5 0.365892
28 1 0.371773 0.25 0.398927
32 1 0.371772 0.75 0.398927
33 1 0.871804 1 0.398228
37 1 0.871804 0.5 0.398228
34 1 0.00269307 0.25 0.430407
35 1 0.502702 1 0.432407
38 1 0.00269323 0.75 0.430407
39 1 0.502702 0.5 0.432407
36 1 0.3718 0.25 0.464447
40 1 0.3718 0.75 0.464447
41 1 0.871798 0.216667 0.467433
45 1 0.871798 0.716667 0.467433
42 1 0.00269917 0.466667 0.499473
43 1 0.502697 0.216667 0.501474
46 1 0.0026991 0.966667 0.499473
47 1 0.502697 0.716667 0.501474
44 1 0.371776 0.466667 0.533651
48 1 0.371776 0.966667 0.533651
49 1 0.871783 0.216667 0.532957
50 1 0.00267534 0.466667 0.566004
51 1 0.502698 0.216667 0.56599
53 1 0.871783 0.716667 0.532957
54 1 0.00267536 0.966667 0.566004
55 1 0.502698 0.716667 0.56599
52 1 0.371784 0.466667 0.598681
56 1 0.371784 0.966667 0.598681
57 1 0.871773 0.216667 0.598761
61 1 0.871773 0.716667 0.598761
58 1 0.00280372 0.466667 0.631457
59 1 0.502578 0.216667 0.631442
62 1 0.00280372 0.966667 0.631457
63 1 0.502578 0.716667 0.631442
60 1 0.371965 0.466667 0.66425
64 1 0.371965 0.966667 0.66425
65 1 0.87158 0.216667 0.664105
69 1 0.87158 0.716667 0.664105
66 1 0.00207867 0.466667 0.696744
67 1 0.503324 0.216667 0.697059
70 1 0.00207867 0.966667 0.696744
71 1 0.503324 0.716667 0.697059
68 1 0.367415 0.466667 0.729186
72 1 0.367415 0.966667 0.729186
73 1 0.875288 0.216667 0.72977
77 1 0.875288 0.716667 0.72977
74 1 0 0.466667 0.764068
75 1 0.501436 0.216667 0.759866
78 1 0 0.966667 0.764068
79 1 0.501436 0.716667 0.759866
76 1 0.5 0.466667 0.790877
80 1 0.5 0.966667 0.790877
