ITEM: TIMESTEP
655
ITEM: NUMBER OF ATOMS
80
ITEM: BOX BOUNDS pp pp pp
0.0000000000000000e+00 5.6825487348095471e+00
0.0000000000000000e+00 7.1176886540000002e+00
0.0000000000000000e+00 7.6640963165803498e+01
ITEM: ATOMS id type xs ys zs
1 1 0 0 0
2 1 1 0.25 0.0298381
5 1 0 0.5 0
6 1 1 0.75 0.0298381
3 1 0.379583 3.54825e-05 0.174781
7 1 0.379583 0.499965 0.174781
4 1 0.371121 0.25 0.205341
8 1 0.371125 0.75 0.205338
9 1 0.872585 1.44325e-05 0.199813
13 1 0.872585 0.499986 0.199813
10 1 0.998558 0.25 0.234712
11 1 0.508938 0.999993 0.235467
14 1 0.998565 0.75 0.234711
15 1 0.508938 0.500007 0.235467
12 1 0.370932 0.25 0.267381
16 1 0.370928 0.75 0.267381
17 1 0.872594 0.999996 0.2678
18 1 0.00298213 0.25 0.30041
19 1 0.502471 3.95406e-07 0.30021
21 1 0.872594 0.500004 0.2678
22 1 0.00298131 0.75 0.30041
23 1 0.502471 0.5 0.30021
20 1 0.37193 0.25 0.333007
24 1 0.371931 0.75 0.333007
25 1 0.871633 1.23872e-06 0.333065
29 1 0.871633 0.499999 0.333065
26 1 0.00270522 0.25 0.365755
27 1 0.502693 2.29395e-07 0.365765
30 1 0.00270502 0.75 0.365755
31 1 0.502693 0.5 0.365765
28 1 0.371773 0.25 0.398788
32 1 0.371772 0.75 0.398788
33 1 0.871804 1 0.39812
37 1 0.871804 0.5 0.39812
34 1 0.00269307 0.25 0.430331
35 1 0.502702 1 0.432251
38 1 0.00269323 0.75 0.43033
39 1 0.502702 0.5 0.432251
36 1 0.3718 0.25 0.464297
40 1 0.3718 0.75 0.464298
41 1 0.871798 0.25 0.467473
45 1 0.871798 0.75 0.467473
42 1 0.00269917 0.5 0.499519
43 1 0.502697 0.25 0.501441
46 1 0.0026991 1 0.499519
47 1 0.502697 0.75 0.501441
44 1 0.371776 0.5 0.533648
48 1 0.371776 2.12134e-15 0.533648
49 1 0.871783 0.25 0.532985
50 1 0.00267534 0.5 0.566019
51 1 0.502698 0.25 0.566002
53 1 0.871783 0.75 0.532985
54 1 0.00267536 1 0.566019
55 1 0.502698 0.75 0.566002
52 1 0.371784 0.5 0.598694
56 1 0.371784 1 0.598694
57 1 0.871773 0.25 0.598771
61 1 0.871773 0.75 0.598771
58 1 0.00280372 0.5 0.631466
59 1 0.502578 0.25 0.631452
62 1 0.00280372 1 0.631466
63 1 0.502578 0.75 0.631452
60 1 0.371965 0.5 0.664257
64 1 0.371965 1 0.664257
65 1 0.87158 0.25 0.664112
69 1 0.87158 0.75 0.664112
66 1 0.00207867 0.5 0.696748
67 1 0.503324 0.25 0.697064
70 1 0.00207867 1 0.696748
71 1 0.503324 0.75 0.697064
68 1 0.367415 0.5 0.729189
72 1 0.367415 1 0.729189
73 1 0.875288 0.25 0.729772
77 1 0.875288 0.75 0.729772
74 1 0 0.5 0.764068
75 1 0.501436 0.25 0.759867
78 1 0 1 0.764068
79 1 0.501436 0.75 0.759867
76 1 0.5 0.5 0.790877
80 1 0.5 1 0.790877
