ITEM: TIMESTEP
538
ITEM: NUMBER OF ATOMS
80
ITEM: BOX BOUNDS pp pp pp
0.0000000000000000e+00 5.6825487348095471e+00
0.0000000000000000e+00 7.1176886540000002e+00
0.0000000000000000e+00 7.6640963165803498e+01
ITEM: ATOMS id type xs ys zs
1 1 0 0 0
2 1 1 0.25 0.0298381
5 1 0 0.5 0
6 1 1 0.75 0.0298381
3 1 0.379583 3.54825e-05 0.175626
7 1 0.379583 0.499965 0.175626
4 1 0.371121 0.25 0.206186
8 1 0.371125 0.75 0.206183
9 1 0.872585 1.44325e-05 0.200658
13 1 0.872585 0.499986 0.200658
10 1 0.998558 0.25 0.235558
11 1 0.508938 0.999993 0.236313
14 1 0.998565 0.75 0.235556
15 1 0.508938 0.500007 0.236313
12 1 0.370932 0.25 0.268226
16 1 0.370928 0.75 0.268226
17 1 0.872594 0.999996 0.268645
18 1 0.00298213 0.25 0.301256
19 1 0.502471 3.95406e-07 0.301053
21 1 0.872594 0.500004 0.268645
22 1 0.00298131 0.75 0.301257
23 1 0.502471 0.5 0.301053
20 1 0.37193 0.25 0.333848
24 1 0.371931 0.75 0.333848
25 1 0.871633 1.23872e-06 0.333913
29 1 0.871633 0.499999 0.333913
26 1 0.00270522 0.25 0.366592
27 1 0.502693 2.29395e-07 0.366615
30 1 0.00270502 0.75 0.366592
31 1 0.502693 0.5 0.366615
28 1 0.371773 0.25 0.39968
32 1 0.371772 0.75 0.39968
33 1 0.871804 1 0.398901
37 1 0.871804 0.5 0.398901
34 1 0.00269307 0.25 0.43101
35 1 0.502702 1 0.433143
38 1 0.00269323 0.75 0.43101
39 1 0.502702 0.5 0.433143
36 1 0.3718 0.25 0.465212
40 1 0.3718 0.75 0.465212
41 1 0.871798 0.166667 0.467388
45 1 0.871798 0.666667 0.467388
42 1 0.00269917 0.416667 0.499456
43 1 0.502697 0.166667 0.501591
46 1 0.0026991 0.916667 0.499456
47 1 0.502697 0.666667 0.501591
44 1 0.371776 0.416667 0.533698
48 1 0.371776 0.916667 0.533698
49 1 0.871783 0.166667 0.532923
50 1 0.00267534 0.416667 0.566
51 1 0.502698 0.166667 0.565996
53 1 0.871783 0.666667 0.532923
54 1 0.00267536 0.916667 0.566
55 1 0.502698 0.666667 0.565996
52 1 0.371784 0.416667 0.598679
56 1 0.371784 0.916667 0.598679
57 1 0.871773 0.166667 0.598763
61 1 0.871773 0.666667 0.598763
58 1 0.00280372 0.416667 0.631458
59 1 0.502578 0.166667 0.631441
62 1 0.00280372 0.916667 0.631458
63 1 0.502578 0.666667 0.631441
60 1 0.371965 0.416667 0.66425
64 1 0.371965 0.916667 0.66425
65 1 0.87158 0.166667 0.664105
69 1 0.87158 0.666667 0.664105
66 1 0.00207867 0.416667 0.696743
67 1 0.503324 0.166667 0.697059
70 1 0.00207867 0.916667 0.696743
71 1 0.503324 0.666667 0.697059
68 1 0.367415 0.416667 0.729186
72 1 0.367415 0.916667 0.729186
73 1 0.875288 0.166667 0.72977
77 1 0.875288 0.666667 0.72977
74 1 0 0.416667 0.764068
75 1 0.501436 0.166667 0.759866
78 1 0 0.916667 0.764068
79 1 0.501436 0.666667 0.759866
76 1 0.5 0.416667 0.790877
80 1 0.5 0.916667 0.790877
