ITEM: TIMESTEP
639
ITEM: NUMBER OF ATOMS
80
ITEM: BOX BOUNDS pp pp pp
0.0000000000000000e+00 5.6825487348095471e+00
0.0000000000000000e+00 7.1176886540000002e+00
0.0000000000000000e+00 7.6640963165803498e+01
ITEM: ATOMS id type xs ys zs
1 1 0 0 0
2 1 1 0.25 0.0298381
5 1 0 0.5 0
6 1 1 0.75 0.0298381
3 1 0.379583 3.54825e-05 0.174797
7 1 0.379583 0.499965 0.174797
4 1 0.371121 0.25 0.205358
8 1 0.371125 0.75 0.205354
9 1 0.872585 1.44325e-05 0.199829
13 1 0.872585 0.499986 0.199829
10 1 0.998558 0.25 0.234729
11 1 0.508938 0.999993 0.235484
14 1 0.998565 0.75 0.234727
15 1 0.508938 0.500007 0.235484
12 1 0.370932 0.25 0.267397
16 1 0.370928 0.75 0.267397
17 1 0.872594 0.999996 0.267816
18 1 0.00298213 0.25 0.300426
19 1 0.502471 3.95406e-07 0.300226
21 1 0.872594 0.500004 0.267816
22 1 0.00298131 0.75 0.300426
23 1 0.502471 0.5 0.300226
20 1 0.37193 0.25 0.333023
24 1 0.371931 0.75 0.333023
25 1 0.871633 1.23872e-06 0.333081
29 1 0.871633 0.499999 0.333081
26 1 0.00270522 0.25 0.365771
27 1 0.502693 2.29395e-07 0.365781
30 1 0.00270502 0.75 0.365771
31 1 0.502693 0.5 0.365781
28 1 0.371773 0.25 0.398807
32 1 0.371772 0.75 0.398807
33 1 0.871804 1 0.398132
37 1 0.871804 0.5 0.398132
34 1 0.00269307 0.25 0.430335
35 1 0.502702 1 0.432275
38 1 0.00269323 0.75 0.430335
39 1 0.502702 0.5 0.432275
36 1 0.3718 0.25 0.46432
40 1 0.3718 0.75 0.46432
41 1 0.871798 0.233333 0.46745
45 1 0.871798 0.733333 0.46745
42 1 0.00269917 0.483333 0.499495
43 1 0.502697 0.233333 0.501436
46 1 0.0026991 0.983333 0.499495
47 1 0.502697 0.733333 0.501436
44 1 0.371776 0.483333 0.533637
48 1 0.371776 0.983333 0.533637
49 1 0.871783 0.233333 0.532966
50 1 0.00267534 0.483333 0.566005
51 1 0.502698 0.233333 0.565989
53 1 0.871783 0.733333 0.532966
54 1 0.00267536 0.983333 0.566005
55 1 0.502698 0.733333 0.565989
52 1 0.371784 0.483333 0.598682
56 1 0.371784 0.983333 0.598682
57 1 0.871773 0.233333 0.59876
61 1 0.871773 0.733333 0.59876
58 1 0.00280372 0.483333 0.631457
59 1 0.502578 0.233333 0.631443
62 1 0.00280372 0.983333 0.631457
63 1 0.502578 0.733333 0.631443
60 1 0.371965 0.483333 0.66425
64 1 0.371965 0.983333 0.66425
65 1 0.87158 0.233333 0.664105
69 1 0.87158 0.733333 0.664105
66 1 0.00207867 0.483333 0.696744
67 1 0.503324 0.233333 0.697059
70 1 0.00207867 0.983333 0.696744
71 1 0.503324 0.733333 0.697059
68 1 0.367415 0.483333 0.729186
72 1 0.367415 0.983333 0.729186
73 1 0.875288 0.233333 0.72977
77 1 0.875288 0.733333 0.72977
74 1 0 0.483333 0.764068
75 1 0.501436 0.233333 0.759866
78 1 0 0.983333 0.764068
79 1 0.501436 0.733333 0.759866
76 1 0.5 0.483333 0.790877
80 1 0.5 0.983333 0.790877
