ITEM: TIMESTEP
202
ITEM: NUMBER OF ATOMS
80
ITEM: BOX BOUNDS pp pp pp
0.0000000000000000e+00 4.6533240000000005e+00
0.0000000000000000e+00 5.8680000000000003e+00
0.0000000000000000e+00 6.5818347000000017e+01
ITEM: ATOMS id type xs ys zs
1 1 1 8.27786e-13 0
2 1 1 0.25 0.0350636
3 1 0.5 1 0.0222808
5 1 1 0.5 0
6 1 1 0.75 0.0350636
7 1 0.5 0.5 0.0222808
4 1 0.5 0.25 0.0612782
8 1 0.5 0.75 0.0612782
9 1 8.64103e-12 1 0.074419
11 1 0.5 2.43689e-14 0.0995853
13 1 2.24414e-11 0.5 0.074419
15 1 0.5 0.5 0.0995853
10 1 1.10166e-11 0.25 0.11255
12 1 0.5 0.25 0.138229
14 1 1.10165e-11 0.75 0.11255
16 1 0.5 0.75 0.138229
17 1 3.1065e-12 1 0.151033
21 1 1.88331e-12 0.5 0.151033
18 1 1 0.25 0.189511
19 1 0.5 2.27039e-15 0.176696
20 1 0.5 0.25 0.215158
22 1 1 0.75 0.189511
23 1 0.5 0.5 0.176696
24 1 0.5 0.75 0.215158
25 1 1 1 0.22803
26 1 2.61816e-14 0.25 0.266621
27 1 0.5 1.96768e-15 0.253585
29 1 4.13412e-14 0.5 0.22803
30 1 2.67218e-14 0.75 0.266621
31 1 0.5 0.5 0.253585
28 1 0.5 0.25 0.291905
32 1 0.5 0.75 0.291905
33 1 7.04965e-15 1.81632e-15 0.305522
37 1 2.02606e-15 0.5 0.305522
35 1 0.5 1 0.330322
39 1 0.5 0.5 0.330322
34 1 1 0.25 0.344253
36 1 0.5 0.25 0.367837
38 1 1 0.75 0.344253
40 1 0.5 0.75 0.367837
41 1 1 0.216667 0.389811
45 1 1 0.716667 0.389811
42 1 1 0.466667 0.427326
43 1 0.5 0.216667 0.413396
46 1 1 0.966667 0.427326
47 1 0.5 0.716667 0.413396
44 1 0.5 0.466667 0.452127
48 1 0.5 0.966667 0.452127
49 1 3.21997e-13 0.216667 0.465742
51 1 0.5 0.216667 0.491029
53 1 3.22135e-13 0.716667 0.465742
55 1 0.5 0.716667 0.491029
50 1 3.49101e-13 0.466667 0.504058
52 1 0.5 0.466667 0.529622
54 1 3.4897e-13 0.966667 0.504058
56 1 0.5 0.966667 0.529622
57 1 1 0.216667 0.542477
61 1 1 0.716667 0.542477
58 1 1 0.466667 0.580922
59 1 0.5 0.216667 0.568147
60 1 0.5 0.466667 0.60664
62 1 1 0.966667 0.580922
63 1 0.5 0.716667 0.568147
64 1 0.5 0.966667 0.60664
65 1 3.3317e-10 0.216667 0.619326
66 1 3.61949e-10 0.466667 0.657885
67 1 0.5 0.216667 0.645181
69 1 3.3317e-10 0.716667 0.619326
70 1 3.6195e-10 0.966667 0.657885
71 1 0.5 0.716667 0.645181
68 1 0.5 0.466667 0.683397
72 1 0.5 0.966667 0.683397
73 1 1 0.216667 0.695867
77 1 1 0.716667 0.695867
75 1 0.5 0.216667 0.723333
79 1 0.5 0.716667 0.723333
74 1 1 0.466667 0.733495
76 1 0.5 0.466667 0.759231
78 1 1 0.966667 0.733495
80 1 0.5 0.966667 0.759231
