ITEM: TIMESTEP
150
ITEM: NUMBER OF ATOMS
80
ITEM: BOX BOUNDS pp pp pp
0.0000000000000000e+00 4.6533240000000005e+00
0.0000000000000000e+00 5.8680000000000003e+00
0.0000000000000000e+00 6.5818347000000017e+01
ITEM: ATOMS id type xs ys zs
1 1 1 8.27786e-13 0
2 1 1 0.25 0.0351257
3 1 0.5 1 0.0223443
5 1 1 0.5 0
6 1 1 0.75 0.0351257
7 1 0.5 0.5 0.0223443
4 1 0.5 0.25 0.0613879
8 1 0.5 0.75 0.0613879
9 1 8.64103e-12 1 0.074578
11 1 0.5 2.43689e-14 0.0997572
13 1 2.24414e-11 0.5 0.074578
15 1 0.5 0.5 0.0997572
10 1 1.10166e-11 0.25 0.112785
12 1 0.5 0.25 0.138477
14 1 1.10165e-11 0.75 0.112785
16 1 0.5 0.75 0.138477
17 1 3.1065e-12 1 0.15135
21 1 1.88331e-12 0.5 0.15135
18 1 1 0.25 0.189901
19 1 0.5 2.27039e-15 0.177019
20 1 0.5 0.25 0.215561
22 1 1 0.75 0.189901
23 1 0.5 0.5 0.177019
24 1 0.5 0.75 0.215561
25 1 1 1 0.228493
26 1 2.61816e-14 0.25 0.267141
27 1 0.5 1.96768e-15 0.25407
29 1 4.13412e-14 0.5 0.228493
30 1 2.67218e-14 0.75 0.267141
31 1 0.5 0.5 0.25407
28 1 0.5 0.25 0.292508
32 1 0.5 0.75 0.292508
33 1 7.04965e-15 1.81632e-15 0.30607
37 1 2.02606e-15 0.5 0.30607
35 1 0.5 1 0.330954
39 1 0.5 0.5 0.330954
34 1 1 0.25 0.344861
36 1 0.5 0.25 0.368798
38 1 1 0.75 0.344861
40 1 0.5 0.75 0.368798
41 1 1 0.15 0.388872
45 1 1 0.65 0.388872
42 1 1 0.4 0.426716
43 1 0.5 0.15 0.41281
46 1 1 0.9 0.426716
47 1 0.5 0.65 0.41281
44 1 0.5 0.4 0.451601
48 1 0.5 0.9 0.451601
49 1 3.21997e-13 0.15 0.46516
51 1 0.5 0.15 0.490531
53 1 3.22135e-13 0.65 0.46516
55 1 0.5 0.65 0.490531
50 1 3.49101e-13 0.4 0.503595
52 1 0.5 0.4 0.529182
54 1 3.4897e-13 0.9 0.503595
56 1 0.5 0.9 0.529182
57 1 1 0.15 0.542095
61 1 1 0.65 0.542095
58 1 1 0.4 0.580619
59 1 0.5 0.15 0.567779
60 1 0.5 0.4 0.606344
62 1 1 0.9 0.580619
63 1 0.5 0.65 0.567779
64 1 0.5 0.9 0.606344
65 1 3.3317e-10 0.15 0.619098
66 1 3.61949e-10 0.4 0.657732
67 1 0.5 0.15 0.644962
69 1 3.3317e-10 0.65 0.619098
70 1 3.6195e-10 0.9 0.657732
71 1 0.5 0.65 0.644962
68 1 0.5 0.4 0.683253
72 1 0.5 0.9 0.683253
73 1 1 0.15 0.695786
77 1 1 0.65 0.695786
75 1 0.5 0.15 0.723282
79 1 0.5 0.65 0.723282
74 1 1 0.4 0.733495
76 1 0.5 0.4 0.759231
78 1 1 0.9 0.733495
80 1 0.5 0.9 0.759231
