ITEM: TIMESTEP
668
ITEM: NUMBER OF ATOMS
80
ITEM: BOX BOUNDS pp pp pp
0.0000000000000000e+00 5.6825487348095471e+00
0.0000000000000000e+00 7.1176886540000002e+00
0.0000000000000000e+00 7.6640963165803498e+01
ITEM: ATOMS id type xs ys zs
1 1 0 0 0
2 1 1 0.25 0.0298381
5 1 0 0.5 0
6 1 1 0.75 0.0298381
3 1 0.379583 3.54825e-05 0.174788
7 1 0.379583 0.499965 0.174788
4 1 0.371121 0.25 0.205349
8 1 0.371125 0.75 0.205345
9 1 0.872585 1.44325e-05 0.19982
13 1 0.872585 0.499986 0.19982
10 1 0.998558 0.25 0.23472
11 1 0.508938 0.999993 0.235475
14 1 0.998565 0.75 0.234719
15 1 0.508938 0.500007 0.235475
12 1 0.370932 0.25 0.267389
16 1 0.370928 0.75 0.267389
17 1 0.872594 0.999996 0.267808
18 1 0.00298213 0.25 0.300418
19 1 0.502471 3.95406e-07 0.300218
21 1 0.872594 0.500004 0.267808
22 1 0.00298131 0.75 0.300418
23 1 0.502471 0.5 0.300218
20 1 0.37193 0.25 0.333015
24 1 0.371931 0.75 0.333015
25 1 0.871633 1.23872e-06 0.333074
29 1 0.871633 0.499999 0.333074
26 1 0.00270522 0.25 0.365764
27 1 0.502693 2.29395e-07 0.365774
30 1 0.00270502 0.75 0.365764
31 1 0.502693 0.5 0.365774
28 1 0.371773 0.25 0.398801
32 1 0.371772 0.75 0.398801
33 1 0.871804 1 0.398126
37 1 0.871804 0.5 0.398126
34 1 0.00269307 0.25 0.43033
35 1 0.502702 1 0.43227
38 1 0.00269323 0.75 0.43033
39 1 0.502702 0.5 0.43227
36 1 0.3718 0.25 0.464315
40 1 0.3718 0.75 0.464316
41 1 0.871798 0.266667 0.467445
45 1 0.871798 0.766667 0.467446
42 1 0.00269917 0.516667 0.49949
43 1 0.502697 0.266667 0.501432
46 1 0.0026991 0.0166667 0.49949
47 1 0.502697 0.766667 0.501432
44 1 0.371776 0.516667 0.533633
48 1 0.371776 0.0166667 0.533633
49 1 0.871783 0.266667 0.532962
50 1 0.00267534 0.516667 0.566001
51 1 0.502698 0.266667 0.565985
53 1 0.871783 0.766667 0.532963
54 1 0.00267536 0.0166667 0.566001
55 1 0.502698 0.766667 0.565985
52 1 0.371784 0.516667 0.598679
56 1 0.371784 0.0166667 0.598679
57 1 0.871773 0.266667 0.598757
61 1 0.871773 0.766667 0.598757
58 1 0.00280372 0.516667 0.631453
59 1 0.502578 0.266667 0.631439
62 1 0.00280372 0.0166667 0.631453
63 1 0.502578 0.766667 0.631439
60 1 0.371965 0.516667 0.664247
64 1 0.371965 0.0166667 0.664247
65 1 0.87158 0.266667 0.664102
69 1 0.87158 0.766667 0.664102
66 1 0.00207867 0.516667 0.696742
67 1 0.503324 0.266667 0.697057
70 1 0.00207867 0.0166667 0.696742
71 1 0.503324 0.766667 0.697057
68 1 0.367415 0.516667 0.729185
72 1 0.367415 0.0166667 0.729185
73 1 0.875288 0.266667 0.729769
77 1 0.875288 0.766667 0.729769
74 1 0 0.516667 0.764068
75 1 0.501436 0.266667 0.759866
78 1 0 0.0166667 0.764068
79 1 0.501436 0.766667 0.759866
76 1 0.5 0.516667 0.790877
80 1 0.5 0.0166667 0.790877
