ITEM: TIMESTEP
291
ITEM: NUMBER OF ATOMS
80
ITEM: BOX BOUNDS pp pp pp
0.0000000000000000e+00 4.6533240000000005e+00
0.0000000000000000e+00 5.8680000000000003e+00
0.0000000000000000e+00 6.5818347000000017e+01
ITEM: ATOMS id type xs ys zs
1 1 1 8.27786e-13 0
2 1 1 0.25 0.0351239
3 1 0.5 1 0.0223427
5 1 1 0.5 0
6 1 1 0.75 0.0351239
7 1 0.5 0.5 0.0223427
4 1 0.5 0.25 0.0613853
8 1 0.5 0.75 0.0613853
9 1 8.64103e-12 1 0.0745735
11 1 0.5 2.43689e-14 0.099753
13 1 2.24414e-11 0.5 0.0745735
15 1 0.5 0.5 0.099753
10 1 1.10166e-11 0.25 0.112779
12 1 0.5 0.25 0.13847
14 1 1.10165e-11 0.75 0.112779
16 1 0.5 0.75 0.13847
17 1 3.1065e-12 1 0.151342
21 1 1.88331e-12 0.5 0.151342
18 1 1 0.25 0.189891
19 1 0.5 2.27039e-15 0.17701
20 1 0.5 0.25 0.21555
22 1 1 0.75 0.189891
23 1 0.5 0.5 0.17701
24 1 0.5 0.75 0.21555
25 1 1 1 0.228481
26 1 2.61816e-14 0.25 0.26713
27 1 0.5 1.96768e-15 0.254058
29 1 4.13412e-14 0.5 0.228481
30 1 2.67218e-14 0.75 0.26713
31 1 0.5 0.5 0.254058
28 1 0.5 0.25 0.292497
32 1 0.5 0.75 0.292497
33 1 7.04965e-15 1.81632e-15 0.306058
37 1 2.02606e-15 0.5 0.306058
35 1 0.5 1 0.330942
39 1 0.5 0.5 0.330942
34 1 1 0.25 0.344849
36 1 0.5 0.25 0.368787
38 1 1 0.75 0.344849
40 1 0.5 0.75 0.368787
41 1 1 0.35 0.38886
45 1 1 0.85 0.38886
42 1 1 0.6 0.426705
43 1 0.5 0.35 0.412799
46 1 1 0.1 0.426705
47 1 0.5 0.85 0.412799
44 1 0.5 0.6 0.45159
48 1 0.5 0.1 0.45159
49 1 3.21997e-13 0.35 0.465149
51 1 0.5 0.35 0.49052
53 1 3.22135e-13 0.85 0.465149
55 1 0.5 0.85 0.49052
50 1 3.49101e-13 0.6 0.503585
52 1 0.5 0.6 0.529172
54 1 3.4897e-13 0.1 0.503585
56 1 0.5 0.1 0.529172
57 1 1 0.35 0.542086
61 1 1 0.85 0.542086
58 1 1 0.6 0.580612
59 1 0.5 0.35 0.56777
60 1 0.5 0.6 0.606337
62 1 1 0.1 0.580612
63 1 0.5 0.85 0.56777
64 1 0.5 0.1 0.606337
65 1 3.3317e-10 0.35 0.619093
66 1 3.61949e-10 0.6 0.657728
67 1 0.5 0.35 0.644957
69 1 3.3317e-10 0.85 0.619093
70 1 3.6195e-10 0.1 0.657728
71 1 0.5 0.85 0.644957
68 1 0.5 0.6 0.683249
72 1 0.5 0.1 0.683249
73 1 1 0.35 0.695784
77 1 1 0.85 0.695784
75 1 0.5 0.35 0.723281
79 1 0.5 0.85 0.723281
74 1 1 0.6 0.733495
76 1 0.5 0.6 0.759231
78 1 1 0.1 0.733495
80 1 0.5 0.1 0.759231
