ITEM: TIMESTEP
54
ITEM: NUMBER OF ATOMS
80
ITEM: BOX BOUNDS pp pp pp
0.0000000000000000e+00 4.6533240000000005e+00
0.0000000000000000e+00 5.8680000000000003e+00
0.0000000000000000e+00 6.5818347000000017e+01
ITEM: ATOMS id type xs ys zs
1 1 1 8.27786e-13 0
2 1 1 0.25 0.0353244
3 1 0.5 1 0.0225539
5 1 1 0.5 0
6 1 1 0.75 0.0353244
7 1 0.5 0.5 0.0225539
4 1 0.5 0.25 0.0617449
8 1 0.5 0.75 0.0617449
9 1 8.64103e-12 1 0.0751122
11 1 0.5 2.43689e-14 0.100332
13 1 2.24414e-11 0.5 0.0751122
15 1 0.5 0.5 0.100332
10 1 1.10166e-11 0.25 0.113593
12 1 0.5 0.25 0.139297
14 1 1.10165e-11 0.75 0.113593
16 1 0.5 0.75 0.139297
17 1 3.1065e-12 1 0.15242
21 1 1.88331e-12 0.5 0.15242
18 1 1 0.25 0.191205
19 1 0.5 2.27039e-15 0.178098
20 1 0.5 0.25 0.216909
22 1 1 0.75 0.191205
23 1 0.5 0.5 0.178098
24 1 0.5 0.75 0.216909
25 1 1 1 0.230007
26 1 2.61816e-14 0.25 0.268814
27 1 0.5 1.96768e-15 0.255709
29 1 4.13412e-14 0.5 0.230007
30 1 2.67218e-14 0.75 0.268814
31 1 0.5 0.5 0.255709
28 1 0.5 0.25 0.294491
32 1 0.5 0.75 0.294491
33 1 7.04965e-15 1.81632e-15 0.307671
37 1 2.02606e-15 0.5 0.307671
34 1 1 0.25 0.346422
35 1 0.5 1 0.333293
36 1 0.5 0.25 0.371802
38 1 1 0.75 0.346422
39 1 0.5 0.5 0.333293
40 1 0.5 0.75 0.371802
41 1 1 0.05 0.385923
45 1 1 0.55 0.385923
42 1 1 0.3 0.424432
43 1 0.5 0.05 0.411304
46 1 1 0.8 0.424432
47 1 0.5 0.55 0.411304
44 1 0.5 0.3 0.450056
48 1 0.5 0.8 0.450056
49 1 3.21997e-13 0.05 0.463232
51 1 0.5 0.05 0.488914
53 1 3.22135e-13 0.55 0.463232
55 1 0.5 0.55 0.488914
50 1 3.49101e-13 0.3 0.502011
52 1 0.5 0.3 0.527723
54 1 3.4897e-13 0.8 0.502011
56 1 0.5 0.8 0.527723
57 1 1 0.05 0.540801
61 1 1 0.55 0.540801
58 1 1 0.3 0.579593
59 1 0.5 0.05 0.566533
60 1 0.5 0.3 0.605329
62 1 1 0.8 0.579593
63 1 0.5 0.55 0.566533
64 1 0.5 0.8 0.605329
65 1 3.3317e-10 0.05 0.618326
66 1 3.61949e-10 0.3 0.65721
67 1 0.5 0.05 0.64421
69 1 3.3317e-10 0.55 0.618326
70 1 3.6195e-10 0.8 0.65721
71 1 0.5 0.55 0.64421
68 1 0.5 0.3 0.682734
72 1 0.5 0.8 0.682734
73 1 1 0.05 0.6955
77 1 1 0.55 0.6955
75 1 0.5 0.05 0.72311
79 1 0.5 0.55 0.72311
74 1 1 0.3 0.733495
76 1 0.5 0.3 0.759231
78 1 1 0.8 0.733495
80 1 0.5 0.8 0.759231
