ITEM: TIMESTEP
326
ITEM: NUMBER OF ATOMS
80
ITEM: BOX BOUNDS pp pp pp
0.0000000000000000e+00 4.6533240000000005e+00
0.0000000000000000e+00 5.8680000000000003e+00
0.0000000000000000e+00 6.5818347000000017e+01
ITEM: ATOMS id type xs ys zs
1 1 1 8.27786e-13 0
2 1 1 0.25 0.0351882
3 1 0.5 1 0.0224087
5 1 1 0.5 0
6 1 1 0.75 0.0351882
7 1 0.5 0.5 0.0224087
4 1 0.5 0.25 0.0614995
8 1 0.5 0.75 0.0614995
9 1 8.64103e-12 1 0.0747418
11 1 0.5 2.43689e-14 0.0999344
13 1 2.24414e-11 0.5 0.0747418
15 1 0.5 0.5 0.0999344
10 1 1.10166e-11 0.25 0.113031
12 1 0.5 0.25 0.138731
14 1 1.10165e-11 0.75 0.113031
16 1 0.5 0.75 0.138731
17 1 3.1065e-12 1 0.151679
21 1 1.88331e-12 0.5 0.151679
18 1 1 0.25 0.190303
19 1 0.5 2.27039e-15 0.177352
20 1 0.5 0.25 0.215978
22 1 1 0.75 0.190303
23 1 0.5 0.5 0.177352
24 1 0.5 0.75 0.215978
25 1 1 1 0.228964
26 1 2.61816e-14 0.25 0.26766
27 1 0.5 1.96768e-15 0.254573
29 1 4.13412e-14 0.5 0.228964
30 1 2.67218e-14 0.75 0.26766
31 1 0.5 0.5 0.254573
28 1 0.5 0.25 0.293132
32 1 0.5 0.75 0.293132
33 1 7.04965e-15 1.81632e-15 0.3066
37 1 2.02606e-15 0.5 0.3066
35 1 0.5 1 0.331639
39 1 0.5 0.5 0.331639
34 1 1 0.25 0.34534
36 1 0.5 0.25 0.369641
38 1 1 0.75 0.34534
40 1 0.5 0.75 0.369641
41 1 1 0.383333 0.388029
45 1 1 0.883333 0.388029
42 1 1 0.633333 0.42603
43 1 0.5 0.383333 0.41233
46 1 1 0.133333 0.42603
47 1 0.5 0.883333 0.41233
44 1 0.5 0.633333 0.451071
48 1 0.5 0.133333 0.451071
49 1 3.21997e-13 0.383333 0.464536
51 1 0.5 0.383333 0.490013
53 1 3.22135e-13 0.883333 0.464536
55 1 0.5 0.883333 0.490013
50 1 3.49101e-13 0.633333 0.503093
52 1 0.5 0.633333 0.528713
54 1 3.4897e-13 0.133333 0.503093
56 1 0.5 0.133333 0.528713
57 1 1 0.383333 0.541681
61 1 1 0.883333 0.541681
58 1 1 0.633333 0.580291
59 1 0.5 0.383333 0.567383
60 1 0.5 0.633333 0.606022
62 1 1 0.133333 0.580291
63 1 0.5 0.883333 0.567383
64 1 0.5 0.133333 0.606022
65 1 3.3317e-10 0.383333 0.618851
66 1 3.61949e-10 0.633333 0.657566
67 1 0.5 0.383333 0.644725
69 1 3.3317e-10 0.883333 0.618851
70 1 3.6195e-10 0.133333 0.657566
71 1 0.5 0.883333 0.644725
68 1 0.5 0.633333 0.683092
72 1 0.5 0.133333 0.683092
73 1 1 0.383333 0.695697
77 1 1 0.883333 0.695697
75 1 0.5 0.383333 0.723228
79 1 0.5 0.883333 0.723228
74 1 1 0.633333 0.733495
76 1 0.5 0.633333 0.759231
78 1 1 0.133333 0.733495
80 1 0.5 0.133333 0.759231
