ITEM: TIMESTEP
437
ITEM: NUMBER OF ATOMS
80
ITEM: BOX BOUNDS pp pp pp
0.0000000000000000e+00 5.6825487348095471e+00
0.0000000000000000e+00 7.1176886540000002e+00
0.0000000000000000e+00 7.6640963165803498e+01
ITEM: ATOMS id type xs ys zs
1 1 0 0 0
2 1 1 0.25 0.0298381
5 1 0 0.5 0
6 1 1 0.75 0.0298381
3 1 0.379583 3.54825e-05 0.177227
7 1 0.379583 0.499965 0.177227
4 1 0.371121 0.25 0.207787
8 1 0.371125 0.75 0.207784
9 1 0.872585 1.44325e-05 0.202259
13 1 0.872585 0.499986 0.202259
10 1 0.998558 0.25 0.237158
11 1 0.508938 0.999993 0.237913
14 1 0.998565 0.75 0.237157
15 1 0.508938 0.500007 0.237913
12 1 0.370932 0.25 0.269825
16 1 0.370928 0.75 0.269826
17 1 0.872594 0.999996 0.270246
18 1 0.00298213 0.25 0.302854
19 1 0.502471 3.95406e-07 0.302656
21 1 0.872594 0.500004 0.270246
22 1 0.00298131 0.75 0.302854
23 1 0.502471 0.5 0.302656
20 1 0.37193 0.25 0.335465
24 1 0.371931 0.75 0.335465
25 1 0.871633 1.23872e-06 0.335498
29 1 0.871633 0.499999 0.335498
26 1 0.00270522 0.25 0.368184
27 1 0.502693 2.29395e-07 0.368232
28 1 0.371773 0.25 0.401162
30 1 0.00270502 0.75 0.368183
31 1 0.502693 0.5 0.368232
32 1 0.371772 0.75 0.401162
33 1 0.871804 1 0.400692
37 1 0.871804 0.5 0.400692
34 1 0.00269307 0.25 0.433181
35 1 0.502702 1 0.434116
38 1 0.00269323 0.75 0.433181
39 1 0.502702 0.5 0.434116
36 1 0.3718 0.25 0.46655
40 1 0.3718 0.75 0.46655
41 1 0.871798 0.1 0.467651
45 1 0.871798 0.6 0.467651
42 1 0.00269917 0.35 0.500085
43 1 0.502697 0.1 0.501021
46 1 0.0026991 0.85 0.500085
47 1 0.502697 0.6 0.501021
44 1 0.371776 0.35 0.533507
48 1 0.371776 0.85 0.533507
49 1 0.871783 0.1 0.533041
50 1 0.00267534 0.35 0.565983
51 1 0.502698 0.1 0.566005
53 1 0.871783 0.6 0.533041
54 1 0.00267536 0.85 0.565983
55 1 0.502698 0.6 0.566005
52 1 0.371784 0.35 0.598695
56 1 0.371784 0.85 0.598695
57 1 0.871773 0.1 0.598746
61 1 0.871773 0.6 0.598746
58 1 0.00280372 0.35 0.631454
59 1 0.502578 0.1 0.631443
62 1 0.00280372 0.85 0.631454
63 1 0.502578 0.6 0.631443
60 1 0.371965 0.35 0.664248
64 1 0.371965 0.85 0.664248
65 1 0.87158 0.1 0.664105
69 1 0.87158 0.6 0.664105
66 1 0.00207867 0.35 0.696743
67 1 0.503324 0.1 0.697058
70 1 0.00207867 0.85 0.696743
71 1 0.503324 0.6 0.697058
68 1 0.367415 0.35 0.729186
72 1 0.367415 0.85 0.729186
73 1 0.875288 0.1 0.729769
77 1 0.875288 0.6 0.729769
74 1 0 0.35 0.764068
75 1 0.501436 0.1 0.759866
78 1 0 0.85 0.764068
79 1 0.501436 0.6 0.759866
76 1 0.5 0.35 0.790877
80 1 0.5 0.85 0.790877
