ITEM: TIMESTEP
411
ITEM: NUMBER OF ATOMS
80
ITEM: BOX BOUNDS pp pp pp
0.0000000000000000e+00 5.6825487348095471e+00
0.0000000000000000e+00 7.1176886540000002e+00
0.0000000000000000e+00 7.6640963165803498e+01
ITEM: ATOMS id type xs ys zs
1 1 0 0 0
2 1 1 0.25 0.0298381
5 1 0 0.5 0
6 1 1 0.75 0.0298381
3 1 0.379583 3.54825e-05 0.177846
7 1 0.379583 0.499965 0.177846
4 1 0.371121 0.25 0.208406
8 1 0.371125 0.75 0.208403
9 1 0.872585 1.44325e-05 0.202878
13 1 0.872585 0.499986 0.202878
10 1 0.998558 0.25 0.237778
11 1 0.508938 0.999993 0.238532
14 1 0.998565 0.75 0.237776
15 1 0.508938 0.500007 0.238532
12 1 0.370932 0.25 0.270445
16 1 0.370928 0.75 0.270445
17 1 0.872594 0.999996 0.270866
18 1 0.00298213 0.25 0.303472
19 1 0.502471 3.95406e-07 0.303278
21 1 0.872594 0.500004 0.270866
22 1 0.00298131 0.75 0.303473
23 1 0.502471 0.5 0.303278
20 1 0.37193 0.25 0.336092
24 1 0.371931 0.75 0.336092
25 1 0.871633 1.23872e-06 0.336112
29 1 0.871633 0.499999 0.336112
26 1 0.00270522 0.25 0.368807
27 1 0.502693 2.29395e-07 0.368853
28 1 0.371773 0.25 0.401718
30 1 0.00270502 0.75 0.368806
31 1 0.502693 0.5 0.368853
32 1 0.371772 0.75 0.401718
33 1 0.871804 1 0.401392
37 1 0.871804 0.5 0.401392
34 1 0.00269307 0.25 0.433973
35 1 0.502702 1 0.434544
38 1 0.00269323 0.75 0.433973
39 1 0.502702 0.5 0.434544
36 1 0.3718 0.25 0.467058
40 1 0.3718 0.75 0.467058
41 1 0.871798 0.0833334 0.467765
45 1 0.871798 0.583333 0.467765
42 1 0.00269917 0.333333 0.500279
43 1 0.502697 0.0833334 0.500851
46 1 0.0026991 0.833333 0.500279
47 1 0.502697 0.583333 0.500851
44 1 0.371776 0.333333 0.53343
48 1 0.371776 0.833333 0.53343
49 1 0.871783 0.0833333 0.533108
50 1 0.00267534 0.333333 0.565984
51 1 0.502698 0.0833333 0.566004
53 1 0.871783 0.583333 0.533108
54 1 0.00267536 0.833333 0.565984
55 1 0.502698 0.583333 0.566004
52 1 0.371784 0.333333 0.598702
56 1 0.371784 0.833333 0.598702
57 1 0.871773 0.0833333 0.598742
61 1 0.871773 0.583333 0.598742
58 1 0.00280372 0.333333 0.631454
59 1 0.502578 0.0833333 0.631446
62 1 0.00280372 0.833333 0.631454
63 1 0.502578 0.583333 0.631446
60 1 0.371965 0.333333 0.664249
64 1 0.371965 0.833333 0.664249
65 1 0.87158 0.0833333 0.664106
69 1 0.87158 0.583333 0.664106
66 1 0.00207867 0.333333 0.696744
67 1 0.503324 0.0833333 0.697058
70 1 0.00207867 0.833333 0.696744
71 1 0.503324 0.583333 0.697058
68 1 0.367415 0.333333 0.729186
72 1 0.367415 0.833333 0.729186
73 1 0.875288 0.0833333 0.729769
77 1 0.875288 0.583333 0.729769
74 1 0 0.333333 0.764068
75 1 0.501436 0.0833333 0.759866
78 1 0 0.833333 0.764068
79 1 0.501436 0.583333 0.759866
76 1 0.5 0.333333 0.790877
80 1 0.5 0.833333 0.790877
