ITEM: TIMESTEP
178
ITEM: NUMBER OF ATOMS
80
ITEM: BOX BOUNDS pp pp pp
0.0000000000000000e+00 4.6533240000000005e+00
0.0000000000000000e+00 5.8680000000000003e+00
0.0000000000000000e+00 6.5818347000000017e+01
ITEM: ATOMS id type xs ys zs
1 1 1 8.27786e-13 0
2 1 1 0.25 0.0350878
3 1 0.5 1 0.0223054
5 1 1 0.5 0
6 1 1 0.75 0.0350878
7 1 0.5 0.5 0.0223054
4 1 0.5 0.25 0.0613209
8 1 0.5 0.75 0.0613209
9 1 8.64103e-12 1 0.0744805
11 1 0.5 2.43689e-14 0.099652
13 1 2.24414e-11 0.5 0.0744805
15 1 0.5 0.5 0.099652
10 1 1.10166e-11 0.25 0.11264
12 1 0.5 0.25 0.138325
14 1 1.10165e-11 0.75 0.11264
16 1 0.5 0.75 0.138325
17 1 3.1065e-12 1 0.151156
21 1 1.88331e-12 0.5 0.151156
18 1 1 0.25 0.189662
19 1 0.5 2.27039e-15 0.176821
20 1 0.5 0.25 0.215313
22 1 1 0.75 0.189662
23 1 0.5 0.5 0.176821
24 1 0.5 0.75 0.215313
25 1 1 1 0.22821
26 1 2.61816e-14 0.25 0.266826
27 1 0.5 1.96768e-15 0.253771
29 1 4.13412e-14 0.5 0.22821
30 1 2.67218e-14 0.75 0.266826
31 1 0.5 0.5 0.253771
28 1 0.5 0.25 0.292134
32 1 0.5 0.75 0.292134
33 1 7.04965e-15 1.81632e-15 0.305747
37 1 2.02606e-15 0.5 0.305747
35 1 0.5 1 0.330564
39 1 0.5 0.5 0.330564
34 1 1 0.25 0.344519
36 1 0.5 0.25 0.368226
38 1 1 0.75 0.344519
40 1 0.5 0.75 0.368226
41 1 1 0.183333 0.389431
45 1 1 0.683333 0.389431
42 1 1 0.433333 0.427093
43 1 0.5 0.183333 0.413139
46 1 1 0.933333 0.427093
47 1 0.5 0.683333 0.413139
44 1 0.5 0.433333 0.451911
48 1 0.5 0.933333 0.451911
49 1 3.21997e-13 0.183333 0.465521
51 1 0.5 0.183333 0.490832
53 1 3.22135e-13 0.683333 0.465521
55 1 0.5 0.683333 0.490832
50 1 3.49101e-13 0.433333 0.503881
52 1 0.5 0.433333 0.52945
54 1 3.4897e-13 0.933333 0.503881
56 1 0.5 0.933333 0.52945
57 1 1 0.183333 0.542331
61 1 1 0.683333 0.542331
58 1 1 0.433333 0.580806
59 1 0.5 0.183333 0.568005
60 1 0.5 0.433333 0.606526
62 1 1 0.933333 0.580806
63 1 0.5 0.683333 0.568005
64 1 0.5 0.933333 0.606526
65 1 3.3317e-10 0.183333 0.619239
66 1 3.61949e-10 0.433333 0.657826
67 1 0.5 0.183333 0.645097
69 1 3.3317e-10 0.683333 0.619239
70 1 3.6195e-10 0.933333 0.657826
71 1 0.5 0.683333 0.645097
68 1 0.5 0.433333 0.683342
72 1 0.5 0.933333 0.683342
73 1 1 0.183333 0.695836
77 1 1 0.683333 0.695836
75 1 0.5 0.183333 0.723313
79 1 0.5 0.683333 0.723313
74 1 1 0.433333 0.733495
76 1 0.5 0.433333 0.759231
78 1 1 0.933333 0.733495
80 1 0.5 0.933333 0.759231
