ITEM: TIMESTEP
42
ITEM: NUMBER OF ATOMS
80
ITEM: BOX BOUNDS pp pp pp
0.0000000000000000e+00 4.6533240000000005e+00
0.0000000000000000e+00 5.8680000000000003e+00
0.0000000000000000e+00 6.5818347000000017e+01
ITEM: ATOMS id type xs ys zs
1 1 1 8.27786e-13 0
2 1 1 0.25 0.0353337
3 1 0.5 1 0.022564
5 1 1 0.5 0
6 1 1 0.75 0.0353337
7 1 0.5 0.5 0.022564
4 1 0.5 0.25 0.0617617
8 1 0.5 0.75 0.0617617
9 1 8.64103e-12 1 0.075138
11 1 0.5 2.43689e-14 0.100359
13 1 2.24414e-11 0.5 0.075138
15 1 0.5 0.5 0.100359
10 1 1.10166e-11 0.25 0.113632
12 1 0.5 0.25 0.139336
14 1 1.10165e-11 0.75 0.113632
16 1 0.5 0.75 0.139336
17 1 3.1065e-12 1 0.152471
21 1 1.88331e-12 0.5 0.152471
18 1 1 0.25 0.191268
19 1 0.5 2.27039e-15 0.17815
20 1 0.5 0.25 0.216974
22 1 1 0.75 0.191268
23 1 0.5 0.5 0.17815
24 1 0.5 0.75 0.216974
25 1 1 1 0.230079
26 1 2.61816e-14 0.25 0.268894
27 1 0.5 1.96768e-15 0.255789
29 1 4.13412e-14 0.5 0.230079
30 1 2.67218e-14 0.75 0.268894
31 1 0.5 0.5 0.255789
28 1 0.5 0.25 0.294592
32 1 0.5 0.75 0.294592
33 1 7.04965e-15 1.81632e-15 0.307729
37 1 2.02606e-15 0.5 0.307729
34 1 1 0.25 0.346515
35 1 0.5 1 0.333413
36 1 0.5 0.25 0.372084
38 1 1 0.75 0.346515
39 1 0.5 0.5 0.333413
40 1 0.5 0.75 0.372084
41 1 1 0.0333333 0.38564
45 1 1 0.533333 0.38564
42 1 1 0.283333 0.424311
43 1 0.5 0.0333333 0.41121
46 1 1 0.783333 0.424311
47 1 0.5 0.533333 0.41121
44 1 0.5 0.283333 0.449997
48 1 0.5 0.783333 0.449997
49 1 3.21997e-13 0.0333333 0.46313
51 1 0.5 0.0333333 0.488833
53 1 3.22135e-13 0.533333 0.46313
55 1 0.5 0.533333 0.488833
50 1 3.49101e-13 0.283333 0.50193
52 1 0.5 0.283333 0.527651
54 1 3.4897e-13 0.783333 0.50193
56 1 0.5 0.783333 0.527651
57 1 1 0.0333333 0.540735
61 1 1 0.533333 0.540735
58 1 1 0.283333 0.579542
59 1 0.5 0.0333333 0.56647
60 1 0.5 0.283333 0.605278
62 1 1 0.783333 0.579542
63 1 0.5 0.533333 0.56647
64 1 0.5 0.783333 0.605278
65 1 3.3317e-10 0.0333333 0.618287
66 1 3.61949e-10 0.283333 0.657184
67 1 0.5 0.0333333 0.644172
69 1 3.3317e-10 0.533333 0.618287
70 1 3.6195e-10 0.783333 0.657184
71 1 0.5 0.533333 0.644172
68 1 0.5 0.283333 0.682707
72 1 0.5 0.783333 0.682707
73 1 1 0.0333333 0.695486
77 1 1 0.533333 0.695486
75 1 0.5 0.0333333 0.723102
79 1 0.5 0.533333 0.723102
74 1 1 0.283333 0.733495
76 1 0.5 0.283333 0.759231
78 1 1 0.783333 0.733495
80 1 0.5 0.783333 0.759231
