ITEM: TIMESTEP
403
ITEM: NUMBER OF ATOMS
80
ITEM: BOX BOUNDS pp pp pp
0.0000000000000000e+00 4.6533240000000005e+00
0.0000000000000000e+00 5.8680000000000003e+00
0.0000000000000000e+00 6.5818347000000017e+01
ITEM: ATOMS id type xs ys zs
1 1 1 8.27786e-13 0
2 1 1 0.25 0.0353331
3 1 0.5 1 0.0225634
5 1 1 0.5 0
6 1 1 0.75 0.0353331
7 1 0.5 0.5 0.0225634
4 1 0.5 0.25 0.0617606
8 1 0.5 0.75 0.0617606
9 1 8.64103e-12 1 0.0751365
11 1 0.5 2.43689e-14 0.100357
13 1 2.24414e-11 0.5 0.0751365
15 1 0.5 0.5 0.100357
10 1 1.10166e-11 0.25 0.11363
12 1 0.5 0.25 0.139334
14 1 1.10165e-11 0.75 0.11363
16 1 0.5 0.75 0.139334
17 1 3.1065e-12 1 0.152468
21 1 1.88331e-12 0.5 0.152468
18 1 1 0.25 0.191265
19 1 0.5 2.27039e-15 0.178147
20 1 0.5 0.25 0.216971
22 1 1 0.75 0.191265
23 1 0.5 0.5 0.178147
24 1 0.5 0.75 0.216971
25 1 1 1 0.230076
26 1 2.61816e-14 0.25 0.268891
27 1 0.5 1.96768e-15 0.255786
29 1 4.13412e-14 0.5 0.230076
30 1 2.67218e-14 0.75 0.268891
31 1 0.5 0.5 0.255786
28 1 0.5 0.25 0.294589
32 1 0.5 0.75 0.294589
33 1 7.04965e-15 1.81632e-15 0.307726
37 1 2.02606e-15 0.5 0.307726
35 1 0.5 1 0.33341
39 1 0.5 0.5 0.33341
34 1 1 0.25 0.346512
36 1 0.5 0.25 0.372081
38 1 1 0.75 0.346512
40 1 0.5 0.75 0.372081
41 1 1 0.466667 0.385637
45 1 1 0.966667 0.385637
42 1 1 0.716667 0.424308
43 1 0.5 0.466667 0.411207
46 1 1 0.216667 0.424308
47 1 0.5 0.966667 0.411207
44 1 0.5 0.716667 0.449994
48 1 0.5 0.216667 0.449994
49 1 3.21997e-13 0.466667 0.463127
51 1 0.5 0.466667 0.48883
53 1 3.22135e-13 0.966667 0.463127
55 1 0.5 0.966667 0.48883
50 1 3.49101e-13 0.716667 0.501927
52 1 0.5 0.716667 0.527648
54 1 3.4897e-13 0.216667 0.501927
56 1 0.5 0.216667 0.527648
57 1 1 0.466667 0.540733
61 1 1 0.966667 0.540733
58 1 1 0.716667 0.579539
59 1 0.5 0.466667 0.566467
60 1 0.5 0.716667 0.605275
62 1 1 0.216667 0.579539
63 1 0.5 0.966667 0.566467
64 1 0.5 0.216667 0.605275
65 1 3.3317e-10 0.466667 0.618285
66 1 3.61949e-10 0.716667 0.657182
67 1 0.5 0.466667 0.64417
69 1 3.3317e-10 0.966667 0.618285
70 1 3.6195e-10 0.216667 0.657182
71 1 0.5 0.966667 0.64417
68 1 0.5 0.716667 0.682705
72 1 0.5 0.216667 0.682705
73 1 1 0.466667 0.695485
77 1 1 0.966667 0.695485
75 1 0.5 0.466667 0.723101
79 1 0.5 0.966667 0.723101
74 1 1 0.716667 0.733495
76 1 0.5 0.716667 0.759231
78 1 1 0.216667 0.733495
80 1 0.5 0.216667 0.759231
