ITEM: TIMESTEP
265
ITEM: NUMBER OF ATOMS
80
ITEM: BOX BOUNDS pp pp pp
0.0000000000000000e+00 4.6533240000000005e+00
0.0000000000000000e+00 5.8680000000000003e+00
0.0000000000000000e+00 6.5818347000000017e+01
ITEM: ATOMS id type xs ys zs
1 1 1 8.27786e-13 0
2 1 1 0.25 0.0350864
3 1 0.5 1 0.022304
5 1 1 0.5 0
6 1 1 0.75 0.0350864
7 1 0.5 0.5 0.022304
4 1 0.5 0.25 0.0613183
8 1 0.5 0.75 0.0613183
9 1 8.64103e-12 1 0.0744767
11 1 0.5 2.43689e-14 0.0996476
13 1 2.24414e-11 0.5 0.0744767
15 1 0.5 0.5 0.0996476
10 1 1.10166e-11 0.25 0.112635
12 1 0.5 0.25 0.138319
14 1 1.10165e-11 0.75 0.112635
16 1 0.5 0.75 0.138319
17 1 3.1065e-12 1 0.151148
21 1 1.88331e-12 0.5 0.151148
18 1 1 0.25 0.189654
19 1 0.5 2.27039e-15 0.176813
20 1 0.5 0.25 0.215305
22 1 1 0.75 0.189654
23 1 0.5 0.5 0.176813
24 1 0.5 0.75 0.215305
25 1 1 1 0.228202
26 1 2.61816e-14 0.25 0.266818
27 1 0.5 1.96768e-15 0.253763
29 1 4.13412e-14 0.5 0.228202
30 1 2.67218e-14 0.75 0.266818
31 1 0.5 0.5 0.253763
28 1 0.5 0.25 0.292126
32 1 0.5 0.75 0.292126
33 1 7.04965e-15 1.81632e-15 0.305738
37 1 2.02606e-15 0.5 0.305738
35 1 0.5 1 0.330555
39 1 0.5 0.5 0.330555
34 1 1 0.25 0.34451
36 1 0.5 0.25 0.368217
38 1 1 0.75 0.34451
40 1 0.5 0.75 0.368217
41 1 1 0.316667 0.389423
45 1 1 0.816667 0.389423
42 1 1 0.566667 0.427084
43 1 0.5 0.316667 0.41313
46 1 1 0.0666667 0.427084
47 1 0.5 0.816667 0.41313
44 1 0.5 0.566667 0.451903
48 1 0.5 0.0666667 0.451903
49 1 3.21997e-13 0.316667 0.465513
51 1 0.5 0.316667 0.490824
53 1 3.22135e-13 0.816667 0.465513
55 1 0.5 0.816667 0.490824
50 1 3.49101e-13 0.566667 0.503873
52 1 0.5 0.566667 0.529443
54 1 3.4897e-13 0.0666667 0.503873
56 1 0.5 0.0666667 0.529443
57 1 1 0.316667 0.542324
61 1 1 0.816667 0.542324
58 1 1 0.566667 0.580799
59 1 0.5 0.316667 0.567998
60 1 0.5 0.566667 0.60652
62 1 1 0.0666667 0.580799
63 1 0.5 0.816667 0.567998
64 1 0.5 0.0666667 0.60652
65 1 3.3317e-10 0.316667 0.619234
66 1 3.61949e-10 0.566667 0.657823
67 1 0.5 0.316667 0.645092
69 1 3.3317e-10 0.816667 0.619234
70 1 3.6195e-10 0.0666667 0.657823
71 1 0.5 0.816667 0.645092
68 1 0.5 0.566667 0.683339
72 1 0.5 0.0666667 0.683339
73 1 1 0.316667 0.695834
77 1 1 0.816667 0.695834
75 1 0.5 0.316667 0.723312
79 1 0.5 0.816667 0.723312
74 1 1 0.566667 0.733495
76 1 0.5 0.566667 0.759231
78 1 1 0.0666667 0.733495
80 1 0.5 0.0666667 0.759231
