ITEM: TIMESTEP
231
ITEM: NUMBER OF ATOMS
80
ITEM: BOX BOUNDS pp pp pp
0.0000000000000000e+00 4.6533240000000005e+00
0.0000000000000000e+00 5.8680000000000003e+00
0.0000000000000000e+00 6.5818347000000017e+01
ITEM: ATOMS id type xs ys zs
1 1 1 8.27786e-13 0
2 1 1 0.25 0.0350614
3 1 0.5 1 0.0222792
5 1 1 0.5 0
6 1 1 0.75 0.0350614
7 1 0.5 0.5 0.0222792
4 1 0.5 0.25 0.0612746
8 1 0.5 0.75 0.0612746
9 1 8.64103e-12 1 0.0744129
11 1 0.5 2.43689e-14 0.099579
13 1 2.24414e-11 0.5 0.0744129
15 1 0.5 0.5 0.099579
10 1 1.10166e-11 0.25 0.11254
12 1 0.5 0.25 0.138219
14 1 1.10165e-11 0.75 0.11254
16 1 0.5 0.75 0.138219
17 1 3.1065e-12 1 0.151021
21 1 1.88331e-12 0.5 0.151021
18 1 1 0.25 0.189496
19 1 0.5 2.27039e-15 0.176683
20 1 0.5 0.25 0.215142
22 1 1 0.75 0.189496
23 1 0.5 0.5 0.176683
24 1 0.5 0.75 0.215142
25 1 1 1 0.228013
26 1 2.61816e-14 0.25 0.266602
27 1 0.5 1.96768e-15 0.253566
29 1 4.13412e-14 0.5 0.228013
30 1 2.67218e-14 0.75 0.266602
31 1 0.5 0.5 0.253566
28 1 0.5 0.25 0.291882
32 1 0.5 0.75 0.291882
33 1 7.04965e-15 1.81632e-15 0.305507
37 1 2.02606e-15 0.5 0.305507
35 1 0.5 1 0.330289
39 1 0.5 0.5 0.330289
34 1 1 0.25 0.344218
36 1 0.5 0.25 0.367792
38 1 1 0.75 0.344218
40 1 0.5 0.75 0.367792
41 1 1 0.266667 0.389848
45 1 1 0.766667 0.389848
42 1 1 0.516667 0.427351
43 1 0.5 0.266667 0.413423
46 1 1 0.0166667 0.427351
47 1 0.5 0.766667 0.413423
44 1 0.5 0.516667 0.452134
48 1 0.5 0.0166667 0.452134
49 1 3.21997e-13 0.266667 0.465756
51 1 0.5 0.266667 0.49104
53 1 3.22135e-13 0.766667 0.465756
55 1 0.5 0.766667 0.49104
50 1 3.49101e-13 0.516667 0.50407
52 1 0.5 0.516667 0.529631
54 1 3.4897e-13 0.0166667 0.50407
56 1 0.5 0.0166667 0.529631
57 1 1 0.266667 0.542485
61 1 1 0.766667 0.542485
58 1 1 0.516667 0.580929
59 1 0.5 0.266667 0.568155
60 1 0.5 0.516667 0.606646
62 1 1 0.0166667 0.580929
63 1 0.5 0.766667 0.568155
64 1 0.5 0.0166667 0.606646
65 1 3.3317e-10 0.266667 0.61933
66 1 3.61949e-10 0.516667 0.657888
67 1 0.5 0.266667 0.645185
69 1 3.3317e-10 0.766667 0.61933
70 1 3.6195e-10 0.0166667 0.657888
71 1 0.5 0.766667 0.645185
68 1 0.5 0.516667 0.6834
72 1 0.5 0.0166667 0.6834
73 1 1 0.266667 0.695869
77 1 1 0.766667 0.695869
75 1 0.5 0.266667 0.723334
79 1 0.5 0.766667 0.723334
74 1 1 0.516667 0.733495
76 1 0.5 0.516667 0.759231
78 1 1 0.0166667 0.733495
80 1 0.5 0.0166667 0.759231
