ITEM: TIMESTEP
941
ITEM: NUMBER OF ATOMS
80
ITEM: BOX BOUNDS pp pp pp
0.0000000000000000e+00 5.6825487348095471e+00
0.0000000000000000e+00 7.1176886540000002e+00
0.0000000000000000e+00 7.6640963165803498e+01
ITEM: ATOMS id type xs ys zs
1 1 0 0 0
2 1 1 0.25 0.0298381
5 1 0 0.5 0
6 1 1 0.75 0.0298381
3 1 0.379583 3.54825e-05 0.178363
7 1 0.379583 0.499965 0.178363
4 1 0.371121 0.25 0.208923
8 1 0.371125 0.75 0.20892
9 1 0.872585 1.44325e-05 0.203395
13 1 0.872585 0.499986 0.203395
10 1 0.998558 0.25 0.238295
11 1 0.508938 0.999993 0.239049
14 1 0.998565 0.75 0.238294
15 1 0.508938 0.500007 0.239049
12 1 0.370932 0.25 0.270962
16 1 0.370928 0.75 0.270962
17 1 0.872594 0.999996 0.271384
18 1 0.00298213 0.25 0.303987
19 1 0.502471 3.95406e-07 0.303797
21 1 0.872594 0.500004 0.271384
22 1 0.00298131 0.75 0.303988
23 1 0.502471 0.5 0.303797
20 1 0.37193 0.25 0.336616
24 1 0.371931 0.75 0.336616
25 1 0.871633 1.23872e-06 0.336622
29 1 0.871633 0.499999 0.336622
26 1 0.00270522 0.25 0.36933
27 1 0.502693 2.29395e-07 0.369365
30 1 0.00270502 0.75 0.369329
31 1 0.502693 0.5 0.369365
28 1 0.371773 0.25 0.402143
32 1 0.371772 0.75 0.402143
33 1 0.871804 1 0.402007
37 1 0.871804 0.5 0.402007
34 1 0.00269307 0.25 0.434683
35 1 0.502702 1 0.43488
38 1 0.00269323 0.75 0.434683
39 1 0.502702 0.5 0.43488
36 1 0.3718 0.25 0.467509
40 1 0.3718 0.75 0.467509
41 1 0.871798 0.45 0.467831
45 1 0.871798 0.95 0.467831
42 1 0.00269917 0.7 0.500459
43 1 0.502697 0.45 0.500658
46 1 0.0026991 0.2 0.500459
47 1 0.502697 0.95 0.500658
44 1 0.371776 0.7 0.533331
48 1 0.371776 0.2 0.533331
49 1 0.871783 0.45 0.533199
50 1 0.00267534 0.7 0.565989
51 1 0.502698 0.45 0.565998
53 1 0.871783 0.95 0.533199
54 1 0.00267536 0.2 0.565989
55 1 0.502698 0.95 0.565998
52 1 0.371784 0.7 0.598709
56 1 0.371784 0.2 0.598709
57 1 0.871773 0.45 0.598734
61 1 0.871773 0.95 0.598734
58 1 0.00280372 0.7 0.631452
59 1 0.502578 0.45 0.631448
62 1 0.00280372 0.2 0.631452
63 1 0.502578 0.95 0.631448
60 1 0.371965 0.7 0.664249
64 1 0.371965 0.2 0.664249
65 1 0.87158 0.45 0.664106
69 1 0.87158 0.95 0.664106
66 1 0.00207867 0.7 0.696745
67 1 0.503324 0.45 0.697059
70 1 0.00207867 0.2 0.696745
71 1 0.503324 0.95 0.697059
68 1 0.367415 0.7 0.729186
72 1 0.367415 0.2 0.729186
73 1 0.875288 0.45 0.72977
77 1 0.875288 0.95 0.72977
74 1 0 0.7 0.764068
75 1 0.501436 0.45 0.759866
78 1 0 0.2 0.764068
79 1 0.501436 0.95 0.759866
76 1 0.5 0.7 0.790877
80 1 0.5 0.2 0.790877
