ITEM: TIMESTEP
311
ITEM: NUMBER OF ATOMS
80
ITEM: BOX BOUNDS pp pp pp
0.0000000000000000e+00 4.6533240000000005e+00
0.0000000000000000e+00 5.8680000000000003e+00
0.0000000000000000e+00 6.5818347000000017e+01
ITEM: ATOMS id type xs ys zs
1 1 1 8.27786e-13 0
2 1 1 0.25 0.0351533
3 1 0.5 1 0.0223724
5 1 1 0.5 0
6 1 1 0.75 0.0351533
7 1 0.5 0.5 0.0223724
4 1 0.5 0.25 0.0614369
8 1 0.5 0.75 0.0614369
9 1 8.64103e-12 1 0.0746495
11 1 0.5 2.43689e-14 0.0998349
13 1 2.24414e-11 0.5 0.0746495
15 1 0.5 0.5 0.0998349
10 1 1.10166e-11 0.25 0.112892
12 1 0.5 0.25 0.138588
14 1 1.10165e-11 0.75 0.112892
16 1 0.5 0.75 0.138588
17 1 3.1065e-12 1 0.151494
21 1 1.88331e-12 0.5 0.151494
18 1 1 0.25 0.190077
19 1 0.5 2.27039e-15 0.177164
20 1 0.5 0.25 0.215743
22 1 1 0.75 0.190077
23 1 0.5 0.5 0.177164
24 1 0.5 0.75 0.215743
25 1 1 1 0.2287
26 1 2.61816e-14 0.25 0.26737
27 1 0.5 1.96768e-15 0.25429
29 1 4.13412e-14 0.5 0.2287
30 1 2.67218e-14 0.75 0.26737
31 1 0.5 0.5 0.25429
28 1 0.5 0.25 0.292783
32 1 0.5 0.75 0.292783
33 1 7.04965e-15 1.81632e-15 0.306308
37 1 2.02606e-15 0.5 0.306308
35 1 0.5 1 0.331249
39 1 0.5 0.5 0.331249
34 1 1 0.25 0.345079
36 1 0.5 0.25 0.369178
38 1 1 0.75 0.345079
40 1 0.5 0.75 0.369178
41 1 1 0.366667 0.388489
45 1 1 0.866667 0.388489
42 1 1 0.616667 0.426419
43 1 0.5 0.366667 0.412589
46 1 1 0.116667 0.426419
47 1 0.5 0.866667 0.412589
44 1 0.5 0.616667 0.451361
48 1 0.5 0.116667 0.451361
49 1 3.21997e-13 0.366667 0.464883
51 1 0.5 0.366667 0.4903
53 1 3.22135e-13 0.866667 0.464883
55 1 0.5 0.866667 0.4903
50 1 3.49101e-13 0.616667 0.503373
52 1 0.5 0.616667 0.528973
54 1 3.4897e-13 0.116667 0.503373
56 1 0.5 0.116667 0.528973
57 1 1 0.366667 0.541912
61 1 1 0.866667 0.541912
58 1 1 0.616667 0.580474
59 1 0.5 0.366667 0.567603
60 1 0.5 0.616667 0.606201
62 1 1 0.116667 0.580474
63 1 0.5 0.866667 0.567603
64 1 0.5 0.116667 0.606201
65 1 3.3317e-10 0.366667 0.618989
66 1 3.61949e-10 0.616667 0.657659
67 1 0.5 0.366667 0.644857
69 1 3.3317e-10 0.866667 0.618989
70 1 3.6195e-10 0.116667 0.657659
71 1 0.5 0.866667 0.644857
68 1 0.5 0.616667 0.683182
72 1 0.5 0.116667 0.683182
73 1 1 0.366667 0.695747
77 1 1 0.866667 0.695747
75 1 0.5 0.366667 0.723258
79 1 0.5 0.866667 0.723258
74 1 1 0.616667 0.733495
76 1 0.5 0.616667 0.759231
78 1 1 0.116667 0.733495
80 1 0.5 0.116667 0.759231
