ITEM: TIMESTEP
118
ITEM: NUMBER OF ATOMS
80
ITEM: BOX BOUNDS pp pp pp
0.0000000000000000e+00 4.6533240000000005e+00
0.0000000000000000e+00 5.8680000000000003e+00
0.0000000000000000e+00 6.5818347000000017e+01
ITEM: ATOMS id type xs ys zs
1 1 1 8.27786e-13 0
2 1 1 0.25 0.0351893
3 1 0.5 1 0.0224095
5 1 1 0.5 0
6 1 1 0.75 0.0351893
7 1 0.5 0.5 0.0224095
4 1 0.5 0.25 0.0615016
8 1 0.5 0.75 0.0615016
9 1 8.64103e-12 1 0.0747449
11 1 0.5 2.43689e-14 0.0999381
13 1 2.24414e-11 0.5 0.0747449
15 1 0.5 0.5 0.0999381
10 1 1.10166e-11 0.25 0.113036
12 1 0.5 0.25 0.138736
14 1 1.10165e-11 0.75 0.113036
16 1 0.5 0.75 0.138736
17 1 3.1065e-12 1 0.151686
21 1 1.88331e-12 0.5 0.151686
18 1 1 0.25 0.190311
19 1 0.5 2.27039e-15 0.177358
20 1 0.5 0.25 0.215986
22 1 1 0.75 0.190311
23 1 0.5 0.5 0.177358
24 1 0.5 0.75 0.215986
25 1 1 1 0.228974
26 1 2.61816e-14 0.25 0.267672
27 1 0.5 1.96768e-15 0.254584
29 1 4.13412e-14 0.5 0.228974
30 1 2.67218e-14 0.75 0.267672
31 1 0.5 0.5 0.254584
28 1 0.5 0.25 0.293144
32 1 0.5 0.75 0.293144
33 1 7.04965e-15 1.81632e-15 0.306612
37 1 2.02606e-15 0.5 0.306612
35 1 0.5 1 0.331651
39 1 0.5 0.5 0.331651
34 1 1 0.25 0.345352
36 1 0.5 0.25 0.369653
38 1 1 0.75 0.345352
40 1 0.5 0.75 0.369653
41 1 1 0.116667 0.388041
45 1 1 0.616667 0.388041
42 1 1 0.366667 0.426041
43 1 0.5 0.116667 0.412342
46 1 1 0.866667 0.426041
47 1 0.5 0.616667 0.412342
44 1 0.5 0.366667 0.451082
48 1 0.5 0.866667 0.451082
49 1 3.21997e-13 0.116667 0.464546
51 1 0.5 0.116667 0.490023
53 1 3.22135e-13 0.616667 0.464546
55 1 0.5 0.616667 0.490023
50 1 3.49101e-13 0.366667 0.503101
52 1 0.5 0.366667 0.528722
54 1 3.4897e-13 0.866667 0.503101
56 1 0.5 0.866667 0.528722
57 1 1 0.116667 0.541689
61 1 1 0.616667 0.541689
58 1 1 0.366667 0.580297
59 1 0.5 0.116667 0.56739
60 1 0.5 0.366667 0.606028
62 1 1 0.866667 0.580297
63 1 0.5 0.616667 0.56739
64 1 0.5 0.866667 0.606028
65 1 3.3317e-10 0.116667 0.618856
66 1 3.61949e-10 0.366667 0.657569
67 1 0.5 0.116667 0.644729
69 1 3.3317e-10 0.616667 0.618856
70 1 3.6195e-10 0.866667 0.657569
71 1 0.5 0.616667 0.644729
68 1 0.5 0.366667 0.683095
72 1 0.5 0.866667 0.683095
73 1 1 0.116667 0.695698
77 1 1 0.616667 0.695698
75 1 0.5 0.116667 0.723229
79 1 0.5 0.616667 0.723229
74 1 1 0.366667 0.733495
76 1 0.5 0.366667 0.759231
78 1 1 0.866667 0.733495
80 1 0.5 0.866667 0.759231
