ITEM: TIMESTEP
375
ITEM: NUMBER OF ATOMS
80
ITEM: BOX BOUNDS pp pp pp
0.0000000000000000e+00 4.6533240000000005e+00
0.0000000000000000e+00 5.8680000000000003e+00
0.0000000000000000e+00 6.5818347000000017e+01
ITEM: ATOMS id type xs ys zs
1 1 1 8.27786e-13 0
2 1 1 0.25 0.0352918
3 1 0.5 1 0.0225183
5 1 1 0.5 0
6 1 1 0.75 0.0352918
7 1 0.5 0.5 0.0225183
4 1 0.5 0.25 0.0616859
8 1 0.5 0.75 0.0616859
9 1 8.64103e-12 1 0.0750219
11 1 0.5 2.43689e-14 0.100235
13 1 2.24414e-11 0.5 0.0750219
15 1 0.5 0.5 0.100235
10 1 1.10166e-11 0.25 0.113456
12 1 0.5 0.25 0.139161
14 1 1.10165e-11 0.75 0.113456
16 1 0.5 0.75 0.139161
17 1 3.1065e-12 1 0.152241
21 1 1.88331e-12 0.5 0.152241
18 1 1 0.25 0.190987
19 1 0.5 2.27039e-15 0.177917
20 1 0.5 0.25 0.216684
22 1 1 0.75 0.190987
23 1 0.5 0.5 0.177917
24 1 0.5 0.75 0.216684
25 1 1 1 0.229756
26 1 2.61816e-14 0.25 0.268535
27 1 0.5 1.96768e-15 0.255432
29 1 4.13412e-14 0.5 0.229756
30 1 2.67218e-14 0.75 0.268535
31 1 0.5 0.5 0.255432
28 1 0.5 0.25 0.294167
32 1 0.5 0.75 0.294167
33 1 7.04965e-15 1.81632e-15 0.30743
37 1 2.02606e-15 0.5 0.30743
35 1 0.5 1 0.332875
39 1 0.5 0.5 0.332875
34 1 1 0.25 0.346156
36 1 0.5 0.25 0.371223
38 1 1 0.75 0.346156
40 1 0.5 0.75 0.371223
41 1 1 0.433333 0.386479
45 1 1 0.933333 0.386479
42 1 1 0.683333 0.424827
43 1 0.5 0.433333 0.411546
46 1 1 0.183333 0.424827
47 1 0.5 0.933333 0.411546
44 1 0.5 0.683333 0.450273
48 1 0.5 0.183333 0.450273
49 1 3.21997e-13 0.433333 0.463535
51 1 0.5 0.433333 0.489172
53 1 3.22135e-13 0.933333 0.463535
55 1 0.5 0.933333 0.489172
50 1 3.49101e-13 0.683333 0.502268
52 1 0.5 0.683333 0.527954
54 1 3.4897e-13 0.183333 0.502268
56 1 0.5 0.183333 0.527954
57 1 1 0.433333 0.541007
61 1 1 0.933333 0.541007
58 1 1 0.683333 0.579757
59 1 0.5 0.433333 0.566733
60 1 0.5 0.683333 0.605492
62 1 1 0.183333 0.579757
63 1 0.5 0.933333 0.566733
64 1 0.5 0.183333 0.605492
65 1 3.3317e-10 0.433333 0.618448
66 1 3.61949e-10 0.683333 0.657293
67 1 0.5 0.433333 0.644331
69 1 3.3317e-10 0.933333 0.618448
70 1 3.6195e-10 0.183333 0.657293
71 1 0.5 0.933333 0.644331
68 1 0.5 0.683333 0.682819
72 1 0.5 0.183333 0.682819
73 1 1 0.433333 0.695546
77 1 1 0.933333 0.695546
75 1 0.5 0.433333 0.723138
79 1 0.5 0.933333 0.723138
74 1 1 0.683333 0.733495
76 1 0.5 0.683333 0.759231
78 1 1 0.183333 0.733495
80 1 0.5 0.183333 0.759231
