ITEM: TIMESTEP
84
ITEM: NUMBER OF ATOMS
80
ITEM: BOX BOUNDS pp pp pp
0.0000000000000000e+00 4.6533240000000005e+00
0.0000000000000000e+00 5.8680000000000003e+00
0.0000000000000000e+00 6.5818347000000017e+01
ITEM: ATOMS id type xs ys zs
1 1 1 8.27786e-13 0
2 1 1 0.25 0.0352598
3 1 0.5 1 0.0224835
5 1 1 0.5 0
6 1 1 0.75 0.0352598
7 1 0.5 0.5 0.0224835
4 1 0.5 0.25 0.0616278
8 1 0.5 0.75 0.0616278
9 1 8.64103e-12 1 0.0749341
11 1 0.5 2.43689e-14 0.100141
13 1 2.24414e-11 0.5 0.0749341
15 1 0.5 0.5 0.100141
10 1 1.10166e-11 0.25 0.113323
12 1 0.5 0.25 0.139027
14 1 1.10165e-11 0.75 0.113323
16 1 0.5 0.75 0.139027
17 1 3.1065e-12 1 0.152066
21 1 1.88331e-12 0.5 0.152066
18 1 1 0.25 0.190774
19 1 0.5 2.27039e-15 0.17774
20 1 0.5 0.25 0.216463
22 1 1 0.75 0.190774
23 1 0.5 0.5 0.17774
24 1 0.5 0.75 0.216463
25 1 1 1 0.229512
26 1 2.61816e-14 0.25 0.268266
27 1 0.5 1.96768e-15 0.255161
29 1 4.13412e-14 0.5 0.229512
30 1 2.67218e-14 0.75 0.268266
31 1 0.5 0.5 0.255161
28 1 0.5 0.25 0.293842
32 1 0.5 0.75 0.293842
33 1 7.04965e-15 1.81632e-15 0.30719
37 1 2.02606e-15 0.5 0.30719
35 1 0.5 1 0.332464
39 1 0.5 0.5 0.332464
34 1 1 0.25 0.34592
36 1 0.5 0.25 0.370647
38 1 1 0.75 0.34592
40 1 0.5 0.75 0.370647
41 1 1 0.0833333 0.38707
45 1 1 0.583333 0.38707
42 1 1 0.333333 0.425253
43 1 0.5 0.0833333 0.411798
46 1 1 0.833333 0.425253
47 1 0.5 0.583333 0.411798
44 1 0.5 0.333333 0.450529
48 1 0.5 0.833333 0.450529
49 1 3.21997e-13 0.0833333 0.463873
51 1 0.5 0.0833333 0.489455
53 1 3.22135e-13 0.583333 0.463873
55 1 0.5 0.583333 0.489455
50 1 3.49101e-13 0.333333 0.502549
52 1 0.5 0.333333 0.52821
54 1 3.4897e-13 0.833333 0.502549
56 1 0.5 0.833333 0.52821
57 1 1 0.0833333 0.541236
61 1 1 0.583333 0.541236
58 1 1 0.333333 0.579938
59 1 0.5 0.0833333 0.566953
60 1 0.5 0.333333 0.605673
62 1 1 0.833333 0.579938
63 1 0.5 0.583333 0.566953
64 1 0.5 0.833333 0.605673
65 1 3.3317e-10 0.0833333 0.618585
66 1 3.61949e-10 0.333333 0.657385
67 1 0.5 0.0833333 0.644465
69 1 3.3317e-10 0.583333 0.618585
70 1 3.6195e-10 0.833333 0.657385
71 1 0.5 0.583333 0.644465
68 1 0.5 0.333333 0.682913
72 1 0.5 0.833333 0.682913
73 1 1 0.0833333 0.695597
77 1 1 0.583333 0.695597
75 1 0.5 0.0833333 0.723168
79 1 0.5 0.583333 0.723168
74 1 1 0.333333 0.733495
76 1 0.5 0.333333 0.759231
78 1 1 0.833333 0.733495
80 1 0.5 0.833333 0.759231
