ITEM: TIMESTEP
414
ITEM: NUMBER OF ATOMS
80
ITEM: BOX BOUNDS pp pp pp
0.0000000000000000e+00 4.6533240000000005e+00
0.0000000000000000e+00 5.8680000000000003e+00
0.0000000000000000e+00 6.5818347000000017e+01
ITEM: ATOMS id type xs ys zs
1 1 1 8.27786e-13 0
2 1 1 0.25 0.0353398
3 1 0.5 1 0.0225708
5 1 1 0.5 0
6 1 1 0.75 0.0353398
7 1 0.5 0.5 0.0225708
4 1 0.5 0.25 0.061773
8 1 0.5 0.75 0.061773
9 1 8.64103e-12 1 0.0751549
11 1 0.5 2.43689e-14 0.100377
13 1 2.24414e-11 0.5 0.0751549
15 1 0.5 0.5 0.100377
10 1 1.10166e-11 0.25 0.113658
12 1 0.5 0.25 0.139362
14 1 1.10165e-11 0.75 0.113658
16 1 0.5 0.75 0.139362
17 1 3.1065e-12 1 0.152505
21 1 1.88331e-12 0.5 0.152505
18 1 1 0.25 0.191309
19 1 0.5 2.27039e-15 0.178184
20 1 0.5 0.25 0.217017
22 1 1 0.75 0.191309
23 1 0.5 0.5 0.178184
24 1 0.5 0.75 0.217017
25 1 1 1 0.230127
26 1 2.61816e-14 0.25 0.268945
27 1 0.5 1.96768e-15 0.255843
29 1 4.13412e-14 0.5 0.230127
30 1 2.67218e-14 0.75 0.268945
31 1 0.5 0.5 0.255843
28 1 0.5 0.25 0.294662
32 1 0.5 0.75 0.294662
33 1 7.04965e-15 1.81632e-15 0.307765
37 1 2.02606e-15 0.5 0.307765
35 1 0.5 1 0.33349
39 1 0.5 0.5 0.33349
34 1 1 0.25 0.346569
36 1 0.5 0.25 0.372269
38 1 1 0.75 0.346569
40 1 0.5 0.75 0.372269
41 1 1 0.483333 0.385453
45 1 1 0.983333 0.385453
42 1 1 0.733333 0.424231
43 1 0.5 0.483333 0.411153
46 1 1 0.233333 0.424231
47 1 0.5 0.983333 0.411153
44 1 0.5 0.733333 0.449958
48 1 0.5 0.233333 0.449958
49 1 3.21997e-13 0.483333 0.463058
51 1 0.5 0.483333 0.488779
53 1 3.22135e-13 0.983333 0.463058
55 1 0.5 0.983333 0.488779
50 1 3.49101e-13 0.733333 0.501873
52 1 0.5 0.733333 0.5276
54 1 3.4897e-13 0.233333 0.501873
56 1 0.5 0.233333 0.5276
57 1 1 0.483333 0.540689
61 1 1 0.983333 0.540689
58 1 1 0.733333 0.579505
59 1 0.5 0.483333 0.566425
60 1 0.5 0.733333 0.605241
62 1 1 0.233333 0.579505
63 1 0.5 0.983333 0.566425
64 1 0.5 0.233333 0.605241
65 1 3.3317e-10 0.483333 0.618259
66 1 3.61949e-10 0.733333 0.657165
67 1 0.5 0.483333 0.644144
69 1 3.3317e-10 0.983333 0.618259
70 1 3.6195e-10 0.233333 0.657165
71 1 0.5 0.983333 0.644144
68 1 0.5 0.733333 0.682688
72 1 0.5 0.233333 0.682688
73 1 1 0.483333 0.695475
77 1 1 0.983333 0.695475
75 1 0.5 0.483333 0.723095
79 1 0.5 0.983333 0.723095
74 1 1 0.733333 0.733495
76 1 0.5 0.733333 0.759231
78 1 1 0.233333 0.733495
80 1 0.5 0.233333 0.759231
