ITEM: TIMESTEP
277
ITEM: NUMBER OF ATOMS
80
ITEM: BOX BOUNDS pp pp pp
0.0000000000000000e+00 4.6533240000000005e+00
0.0000000000000000e+00 5.8680000000000003e+00
0.0000000000000000e+00 6.5818347000000017e+01
ITEM: ATOMS id type xs ys zs
1 1 1 8.27786e-13 0
2 1 1 0.25 0.0351018
3 1 0.5 1 0.0223199
5 1 1 0.5 0
6 1 1 0.75 0.0351018
7 1 0.5 0.5 0.0223199
4 1 0.5 0.25 0.0613458
8 1 0.5 0.75 0.0613458
9 1 8.64103e-12 1 0.0745163
11 1 0.5 2.43689e-14 0.0996906
13 1 2.24414e-11 0.5 0.0745163
15 1 0.5 0.5 0.0996906
10 1 1.10166e-11 0.25 0.112693
12 1 0.5 0.25 0.138381
14 1 1.10165e-11 0.75 0.112693
16 1 0.5 0.75 0.138381
17 1 3.1065e-12 1 0.151227
21 1 1.88331e-12 0.5 0.151227
18 1 1 0.25 0.189751
19 1 0.5 2.27039e-15 0.176894
20 1 0.5 0.25 0.215405
22 1 1 0.75 0.189751
23 1 0.5 0.5 0.176894
24 1 0.5 0.75 0.215405
25 1 1 1 0.228315
26 1 2.61816e-14 0.25 0.266944
27 1 0.5 1.96768e-15 0.253885
29 1 4.13412e-14 0.5 0.228315
30 1 2.67218e-14 0.75 0.266944
31 1 0.5 0.5 0.253885
28 1 0.5 0.25 0.292279
32 1 0.5 0.75 0.292279
33 1 7.04965e-15 1.81632e-15 0.305863
37 1 2.02606e-15 0.5 0.305863
35 1 0.5 1 0.330723
39 1 0.5 0.5 0.330723
34 1 1 0.25 0.344639
36 1 0.5 0.25 0.368462
38 1 1 0.75 0.344639
40 1 0.5 0.75 0.368462
41 1 1 0.333333 0.389181
45 1 1 0.833333 0.389181
42 1 1 0.583333 0.426919
43 1 0.5 0.333333 0.413004
46 1 1 0.0833333 0.426919
47 1 0.5 0.833333 0.413004
44 1 0.5 0.583333 0.451781
48 1 0.5 0.0833333 0.451781
49 1 3.21997e-13 0.333333 0.465362
51 1 0.5 0.333333 0.490701
53 1 3.22135e-13 0.833333 0.465362
55 1 0.5 0.833333 0.490701
50 1 3.49101e-13 0.583333 0.503753
52 1 0.5 0.583333 0.529332
54 1 3.4897e-13 0.0833333 0.503753
56 1 0.5 0.0833333 0.529332
57 1 1 0.333333 0.542226
61 1 1 0.833333 0.542226
58 1 1 0.583333 0.580722
59 1 0.5 0.333333 0.567904
60 1 0.5 0.583333 0.606445
62 1 1 0.0833333 0.580722
63 1 0.5 0.833333 0.567904
64 1 0.5 0.0833333 0.606445
65 1 3.3317e-10 0.333333 0.619176
66 1 3.61949e-10 0.583333 0.657784
67 1 0.5 0.333333 0.645036
69 1 3.3317e-10 0.833333 0.619176
70 1 3.6195e-10 0.0833333 0.657784
71 1 0.5 0.833333 0.645036
68 1 0.5 0.583333 0.683302
72 1 0.5 0.0833333 0.683302
73 1 1 0.333333 0.695814
77 1 1 0.833333 0.695814
75 1 0.5 0.333333 0.723299
79 1 0.5 0.833333 0.723299
74 1 1 0.583333 0.733495
76 1 0.5 0.583333 0.759231
78 1 1 0.0833333 0.733495
80 1 0.5 0.0833333 0.759231
