ITEM: TIMESTEP
70
ITEM: NUMBER OF ATOMS
80
ITEM: BOX BOUNDS pp pp pp
0.0000000000000000e+00 4.6533240000000005e+00
0.0000000000000000e+00 5.8680000000000003e+00
0.0000000000000000e+00 6.5818347000000017e+01
ITEM: ATOMS id type xs ys zs
1 1 1 8.27786e-13 0
2 1 1 0.25 0.0352925
3 1 0.5 1 0.0225188
5 1 1 0.5 0
6 1 1 0.75 0.0352925
7 1 0.5 0.5 0.0225188
4 1 0.5 0.25 0.061687
8 1 0.5 0.75 0.061687
9 1 8.64103e-12 1 0.075024
11 1 0.5 2.43689e-14 0.100237
13 1 2.24414e-11 0.5 0.075024
15 1 0.5 0.5 0.100237
10 1 1.10166e-11 0.25 0.113459
12 1 0.5 0.25 0.139164
14 1 1.10165e-11 0.75 0.113459
16 1 0.5 0.75 0.139164
17 1 3.1065e-12 1 0.152245
21 1 1.88331e-12 0.5 0.152245
18 1 1 0.25 0.190993
19 1 0.5 2.27039e-15 0.177921
20 1 0.5 0.25 0.21669
22 1 1 0.75 0.190993
23 1 0.5 0.5 0.177921
24 1 0.5 0.75 0.21669
25 1 1 1 0.229764
26 1 2.61816e-14 0.25 0.268544
27 1 0.5 1.96768e-15 0.255439
29 1 4.13412e-14 0.5 0.229764
30 1 2.67218e-14 0.75 0.268544
31 1 0.5 0.5 0.255439
28 1 0.5 0.25 0.294175
32 1 0.5 0.75 0.294175
33 1 7.04965e-15 1.81632e-15 0.307441
37 1 2.02606e-15 0.5 0.307441
35 1 0.5 1 0.332885
39 1 0.5 0.5 0.332885
34 1 1 0.25 0.346167
36 1 0.5 0.25 0.371234
38 1 1 0.75 0.346167
40 1 0.5 0.75 0.371234
41 1 1 0.0666667 0.38649
45 1 1 0.566667 0.38649
42 1 1 0.316667 0.424837
43 1 0.5 0.0666667 0.411558
46 1 1 0.816667 0.424837
47 1 0.5 0.566667 0.411558
44 1 0.5 0.316667 0.450284
48 1 0.5 0.816667 0.450284
49 1 3.21997e-13 0.0666667 0.463544
51 1 0.5 0.0666667 0.489181
53 1 3.22135e-13 0.566667 0.463544
55 1 0.5 0.566667 0.489181
50 1 3.49101e-13 0.316667 0.502275
52 1 0.5 0.316667 0.527962
54 1 3.4897e-13 0.816667 0.502275
56 1 0.5 0.816667 0.527962
57 1 1 0.0666667 0.541013
61 1 1 0.566667 0.541013
58 1 1 0.316667 0.579762
59 1 0.5 0.0666667 0.566739
60 1 0.5 0.316667 0.605498
62 1 1 0.816667 0.579762
63 1 0.5 0.566667 0.566739
64 1 0.5 0.816667 0.605498
65 1 3.3317e-10 0.0666667 0.618452
66 1 3.61949e-10 0.316667 0.657295
67 1 0.5 0.0666667 0.644335
69 1 3.3317e-10 0.566667 0.618452
70 1 3.6195e-10 0.816667 0.657295
71 1 0.5 0.566667 0.644335
68 1 0.5 0.316667 0.682822
72 1 0.5 0.816667 0.682822
73 1 1 0.0666667 0.695548
77 1 1 0.566667 0.695548
75 1 0.5 0.0666667 0.723139
79 1 0.5 0.566667 0.723139
74 1 1 0.316667 0.733495
76 1 0.5 0.316667 0.759231
78 1 1 0.816667 0.733495
80 1 0.5 0.816667 0.759231
