ITEM: TIMESTEP
30
ITEM: NUMBER OF ATOMS
80
ITEM: BOX BOUNDS pp pp pp
0.0000000000000000e+00 2.9340000000000002e+00
0.0000000000000000e+00 1.0163669400000002e+01
0.0000000000000000e+00 7.4682691523668808e+01
ITEM: ATOMS id type xs ys zs
1 1 0 0 0
2 1 3.46672e-17 0.166667 0.0290908
3 1 0.5 0.25 0
4 1 0.5 0.416667 0.0290908
5 1 0 0.5 0
6 1 0 0.666667 0.0290908
7 1 0.5 0.75 0
8 1 0.5 0.916667 0.0290908
10 1 1 0.166667 0.0917082
11 1 0.5 0.25 0.0608051
12 1 0.5 0.416667 0.0917082
13 1 1 0.5 0.0608051
9 1 3.69713e-17 1 0.0608051
14 1 1 0.666667 0.0917082
15 1 0.5 0.75 0.0608051
16 1 0.5 0.916667 0.0917082
19 1 0.5 0.25 0.122866
21 1 3.49003e-16 0.5 0.122866
17 1 3.02719e-16 1 0.122866
23 1 0.5 0.75 0.122866
18 1 1.5136e-16 0.166667 0.15395
20 1 0.5 0.416667 0.15395
27 1 0.5 0.25 0.185055
29 1 0 0.5 0.185055
25 1 0 1 0.185055
22 1 0 0.666667 0.15395
24 1 0.5 0.916667 0.15395
31 1 0.5 0.75 0.185055
26 1 1 0.166667 0.216153
28 1 0.5 0.416667 0.216153
35 1 0.5 0.25 0.247253
37 1 0 0.5 0.247253
33 1 1 1 0.247253
30 1 3.04983e-16 0.666667 0.216153
32 1 0.5 0.916667 0.216153
39 1 0.5 0.75 0.247253
34 1 1.5136e-16 0.166667 0.278353
36 1 0.5 0.416667 0.278353
38 1 2.19192e-16 0.666667 0.278353
40 1 0.5 0.916667 0.278353
42 1 4.2434e-16 0.166667 0.340553
43 1 0.5 0.25 0.309453
44 1 0.5 0.416667 0.340553
45 1 1.5136e-16 0.5 0.309453
41 1 0 1 0.309453
46 1 1.74607e-16 0.666667 0.340553
47 1 0.5 0.75 0.309453
48 1 0.5 0.916667 0.340553
51 1 0.5 0.25 0.371653
53 1 2.62953e-17 0.5 0.371653
49 1 0 1 0.371653
55 1 0.5 0.75 0.371653
50 1 0 0.166666 0.402752
52 1 0.5 0.416666 0.402752
59 1 0.5 0.25 0.433857
61 1 0 0.5 0.433857
57 1 2.50088e-16 1 0.433857
54 1 1.17006e-16 0.666666 0.402752
56 1 0.5 0.916666 0.402752
63 1 0.5 0.75 0.433857
58 1 1 0.166666 0.464941
60 1 0.5 0.416666 0.464941
67 1 0.5 0.25 0.496099
69 1 1 0.5 0.496099
65 1 4.23699e-16 1 0.496099
62 1 1 0.666666 0.464941
64 1 0.5 0.916666 0.464941
71 1 0.5 0.75 0.496099
66 1 0 0.166666 0.527003
68 1 0.5 0.416666 0.527003
70 1 1 0.666666 0.527003
72 1 0.5 0.916666 0.527003
74 1 1.5136e-16 0.166666 0.587809
75 1 0.5 0.25 0.558718
76 1 0.5 0.416666 0.587809
77 1 1 0.499999 0.558718
73 1 1 0.999999 0.558718
78 1 1 0.666666 0.587809
79 1 0.5 0.75 0.558718
80 1 0.5 0.916666 0.587809
