ITEM: TIMESTEP
205
ITEM: NUMBER OF ATOMS
192
ITEM: BOX BOUNDS pp pp pp
0.0000000000000000e+00 5.9011998176000002e+00
0.0000000000000000e+00 2.1324426539756200e+01
0.0000000000000000e+00 4.3042699813799999e+01
ITEM: ATOMS id type xs ys zs
1 1 0 0.121395 0
7 1 0.25 0.0685083 0.0485411
26 1 1 0.183377 0.0574299
49 1 0.5 0.121395 0
55 1 0.75 0.0685083 0.0485411
74 1 0.5 0.183377 0.0574299
2 1 0 0.318508 0.0485411
3 1 0.25 0.371395 0
28 1 0.25 0.236825 0.00868461
50 1 0.5 0.318508 0.0485411
51 1 0.75 0.371395 0
76 1 0.75 0.236825 0.00868461
25 1 0 0.486825 0.00868461
29 1 0.25 0.433377 0.0574299
73 1 0.5 0.486825 0.00868461
77 1 0.75 0.433377 0.0574299
103 1 0.25 0.568508 0.0485411
151 1 0.75 0.568508 0.0485411
97 1 0 0.621395 0
122 1 1 0.683377 0.0574299
124 1 0.25 0.736825 0.00868461
145 1 0.5 0.621395 0
170 1 0.5 0.683377 0.0574299
172 1 0.75 0.736825 0.00868461
98 1 1.50508e-16 0.818508 0.0485411
99 1 0.25 0.871395 0
121 1 0 0.986825 0.00868461
125 1 0.25 0.933377 0.0574299
146 1 0.5 0.818508 0.0485411
147 1 0.75 0.871395 0
169 1 0.5 0.986825 0.00868461
173 1 0.75 0.933377 0.0574299
4 1 0 0.00925805 0.10197
30 1 0 0.0667923 0.162222
33 1 0.25 0.125018 0.110487
52 1 0.5 0.00925805 0.10197
78 1 0.5 0.0667923 0.162222
81 1 0.75 0.125018 0.110487
5 1 0 0.201122 0.153776
53 1 0.5 0.201122 0.153776
8 1 0.25 0.259258 0.10197
27 1 0 0.375018 0.110487
34 1 0.25 0.316792 0.162222
56 1 0.75 0.259258 0.10197
75 1 0.5 0.375018 0.110487
82 1 0.75 0.316792 0.162222
9 1 0.25 0.451122 0.153776
57 1 0.75 0.451122 0.153776
100 1 1 0.509258 0.10197
126 1 0 0.566792 0.162222
148 1 0.5 0.509258 0.10197
174 1 0.5 0.566792 0.162222
101 1 0 0.701122 0.153776
104 1 0.25 0.759258 0.10197
129 1 0.25 0.625018 0.110487
149 1 0.5 0.701122 0.153776
152 1 0.75 0.759258 0.10197
177 1 0.75 0.625018 0.110487
105 1 0.25 0.951122 0.153776
123 1 2.18999e-17 0.875018 0.110487
130 1 0.25 0.816792 0.162222
153 1 0.75 0.951122 0.153776
171 1 0.5 0.875018 0.110487
178 1 0.75 0.816792 0.162222
10 1 1 0.0845017 0.258921
13 1 0.25 0.142759 0.206787
37 1 0.25 0.0084478 0.214534
58 1 0.5 0.0845017 0.258921
61 1 0.75 0.142759 0.206787
85 1 0.75 0.0084478 0.214534
38 1 0.25 0.200198 0.264805
86 1 0.75 0.200198 0.264805
6 1 1 0.392759 0.206787
14 1 0.25 0.334502 0.258921
31 1 2.09346e-16 0.258448 0.214534
54 1 0.5 0.392759 0.206787
62 1 0.75 0.334502 0.258921
79 1 0.5 0.258448 0.214534
32 1 0 0.450198 0.264805
80 1 0.5 0.450198 0.264805
106 1 1.50508e-16 0.584502 0.258921
133 1 0.25 0.508448 0.214534
154 1 0.5 0.584502 0.258921
181 1 0.75 0.508448 0.214534
109 1 0.25 0.642759 0.206787
127 1 1.46313e-17 0.758448 0.214534
134 1 0.25 0.700198 0.264805
157 1 0.75 0.642759 0.206787
175 1 0.5 0.758448 0.214534
182 1 0.75 0.700198 0.264805
102 1 0 0.892759 0.206787
110 1 0.25 0.834502 0.258921
128 1 1.50508e-16 0.950198 0.264805
150 1 0.5 0.892759 0.206787
158 1 0.75 0.834502 0.258921
176 1 0.5 0.950198 0.264805
135 1 0.458333 0.100251 0.32289
183 1 0.958333 0.100251 0.32289
17 1 0.458333 0.234555 0.317005
65 1 0.958333 0.234555 0.317005
35 1 0.208333 0.350251 0.32289
83 1 0.708333 0.350251 0.32289
11 1 0.208333 0.484555 0.317005
59 1 0.708333 0.484555 0.317005
39 1 0.458333 0.600251 0.32289
87 1 0.958333 0.600251 0.32289
113 1 0.458333 0.734555 0.317005
161 1 0.958333 0.734555 0.317005
131 1 0.208333 0.850251 0.32289
179 1 0.708333 0.850251 0.32289
107 1 0.208333 0.984555 0.317005
155 1 0.708333 0.984555 0.317005
108 1 0.208333 0.176305 0.367276
156 1 0.708333 0.176305 0.367276
115 1 0.458333 0.117961 0.419588
163 1 0.958333 0.117961 0.419588
132 1 0.208333 0.0419938 0.375024
180 1 0.708333 0.0419938 0.375024
40 1 0.208333 0.233631 0.428035
88 1 0.708333 0.233631 0.428035
43 1 0.458333 0.291994 0.375024
91 1 0.958333 0.291994 0.375024
15 1 0.208333 0.367961 0.419588
63 1 0.708333 0.367961 0.419588
18 1 0.458333 0.426305 0.367276
66 1 0.958333 0.426305 0.367276
44 1 0.458333 0.483631 0.428035
92 1 0.958333 0.483631 0.428035
36 1 0.208333 0.541994 0.375024
84 1 0.708333 0.541994 0.375024
19 1 0.458333 0.617961 0.419588
67 1 0.958333 0.617961 0.419588
12 1 0.208333 0.676305 0.367276
60 1 0.708333 0.676305 0.367276
136 1 0.208333 0.733631 0.428035
184 1 0.708333 0.733631 0.428035
139 1 0.458333 0.791994 0.375024
187 1 0.958333 0.791994 0.375024
111 1 0.208333 0.867961 0.419588
159 1 0.708333 0.867961 0.419588
114 1 0.458333 0.926305 0.367276
162 1 0.958333 0.926305 0.367276
140 1 0.458333 0.983631 0.428035
188 1 0.958333 0.983631 0.428035
141 1 0.458333 0.175495 0.47984
189 1 0.958333 0.175495 0.47984
138 1 0.208333 0.116245 0.533269
186 1 0.708333 0.116245 0.533269
112 1 0.208333 0.0597347 0.471324
160 1 0.708333 0.0597347 0.471324
118 1 0.458333 0.00137658 0.52438
166 1 0.958333 0.00137658 0.52438
20 1 0.208333 0.251377 0.52438
68 1 0.708333 0.251377 0.52438
24 1 0.458333 0.309735 0.471324
72 1 0.958333 0.309735 0.471324
47 1 0.458333 0.366245 0.533269
95 1 0.958333 0.366245 0.533269
41 1 0.208333 0.425495 0.47984
89 1 0.708333 0.425495 0.47984
22 1 0.458333 0.501377 0.52438
70 1 0.958333 0.501377 0.52438
16 1 0.208333 0.559735 0.471324
64 1 0.708333 0.559735 0.471324
42 1 0.208333 0.616245 0.533269
90 1 0.708333 0.616245 0.533269
45 1 0.458333 0.675495 0.47984
93 1 0.958333 0.675495 0.47984
116 1 0.208333 0.751377 0.52438
164 1 0.708333 0.751377 0.52438
120 1 0.458333 0.809735 0.471324
168 1 0.958333 0.809735 0.471324
143 1 0.458333 0.866245 0.533269
191 1 0.958333 0.866245 0.533269
137 1 0.208333 0.925495 0.47984
185 1 0.708333 0.925495 0.47984
119 1 0.458333 0.197928 0.573126
167 1 0.958333 0.197928 0.573126
144 1 0.458333 0.0633583 0.58181
192 1 0.958333 0.0633583 0.58181
46 1 0.208333 0.313358 0.58181
94 1 0.708333 0.313358 0.58181
21 1 0.208333 0.447928 0.573126
69 1 0.708333 0.447928 0.573126
48 1 0.458333 0.563358 0.58181
96 1 0.958333 0.563358 0.58181
23 1 0.458333 0.697928 0.573126
71 1 0.958333 0.697928 0.573126
142 1 0.208333 0.813358 0.58181
190 1 0.708333 0.813358 0.58181
117 1 0.208333 0.947928 0.573126
165 1 0.708333 0.947928 0.573126
