ITEM: TIMESTEP
15
ITEM: NUMBER OF ATOMS
192
ITEM: BOX BOUNDS pp pp pp
0.0000000000000000e+00 5.9011998176000002e+00
0.0000000000000000e+00 2.1324426539756200e+01
0.0000000000000000e+00 4.3042699813799999e+01
ITEM: ATOMS id type xs ys zs
1 1 0 0.121395 0
7 1 0.25 0.0685083 0.0489756
26 1 1 0.183377 0.0578386
49 1 0.5 0.121395 0
55 1 0.75 0.0685083 0.0489756
74 1 0.5 0.183377 0.0578386
2 1 0 0.318508 0.0489756
3 1 0.25 0.371395 0
28 1 0.25 0.236825 0.00868461
50 1 0.5 0.318508 0.0489756
51 1 0.75 0.371395 0
76 1 0.75 0.236825 0.00868461
25 1 0 0.486825 0.00868461
29 1 0.25 0.433377 0.0578386
73 1 0.5 0.486825 0.00868461
77 1 0.75 0.433377 0.0578386
103 1 0.25 0.568508 0.0489756
151 1 0.75 0.568508 0.0489756
97 1 0 0.621395 0
122 1 1 0.683377 0.0578386
124 1 0.25 0.736825 0.00868461
145 1 0.5 0.621395 0
170 1 0.5 0.683377 0.0578386
172 1 0.75 0.736825 0.00868461
98 1 1.50508e-16 0.818508 0.0489756
99 1 0.25 0.871395 0
121 1 0 0.986825 0.00868461
125 1 0.25 0.933377 0.0578386
146 1 0.5 0.818508 0.0489756
147 1 0.75 0.871395 0
169 1 0.5 0.986825 0.00868461
173 1 0.75 0.933377 0.0578386
4 1 0 0.00925805 0.102972
30 1 0 0.0667923 0.163626
33 1 0.25 0.125018 0.111361
52 1 0.5 0.00925805 0.102972
78 1 0.5 0.0667923 0.163626
81 1 0.75 0.125018 0.111361
5 1 0 0.201122 0.155155
53 1 0.5 0.201122 0.155155
8 1 0.25 0.259258 0.102972
27 1 0 0.375018 0.111361
34 1 0.25 0.316792 0.163626
56 1 0.75 0.259258 0.102972
75 1 0.5 0.375018 0.111361
82 1 0.75 0.316792 0.163626
9 1 0.25 0.451122 0.155155
57 1 0.75 0.451122 0.155155
100 1 1 0.509258 0.102972
126 1 0 0.566792 0.163626
148 1 0.5 0.509258 0.102972
174 1 0.5 0.566792 0.163626
101 1 0 0.701122 0.155155
104 1 0.25 0.759258 0.102972
129 1 0.25 0.625018 0.111361
149 1 0.5 0.701122 0.155155
152 1 0.75 0.759258 0.102972
177 1 0.75 0.625018 0.111361
105 1 0.25 0.951122 0.155155
123 1 2.18999e-17 0.875018 0.111361
130 1 0.25 0.816792 0.163626
153 1 0.75 0.951122 0.155155
171 1 0.5 0.875018 0.111361
178 1 0.75 0.816792 0.163626
10 1 1 0.0845017 0.260402
13 1 0.25 0.142759 0.207816
37 1 0.25 0.0084478 0.216253
58 1 0.5 0.0845017 0.260402
61 1 0.75 0.142759 0.207816
85 1 0.75 0.0084478 0.216253
38 1 0.25 0.200198 0.268822
86 1 0.75 0.200198 0.268822
6 1 1 0.392759 0.207816
14 1 0.25 0.334502 0.260402
31 1 2.09346e-16 0.258448 0.216253
54 1 0.5 0.392759 0.207816
62 1 0.75 0.334502 0.260402
79 1 0.5 0.258448 0.216253
32 1 0 0.450198 0.268822
80 1 0.5 0.450198 0.268822
106 1 1.50508e-16 0.584502 0.260402
133 1 0.25 0.508448 0.216253
154 1 0.5 0.584502 0.260402
181 1 0.75 0.508448 0.216253
109 1 0.25 0.642759 0.207816
127 1 1.46313e-17 0.758448 0.216253
134 1 0.25 0.700198 0.268822
157 1 0.75 0.642759 0.207816
175 1 0.5 0.758448 0.216253
182 1 0.75 0.700198 0.268822
102 1 0 0.892759 0.207816
110 1 0.25 0.834502 0.260402
128 1 1.50508e-16 0.950198 0.268822
150 1 0.5 0.892759 0.207816
158 1 0.75 0.834502 0.260402
176 1 0.5 0.950198 0.268822
17 1 0.25 0.0262215 0.312989
35 1 2.93508e-16 0.141918 0.321408
65 1 0.75 0.0262215 0.312989
83 1 0.5 0.141918 0.321408
11 1 1 0.276221 0.312989
39 1 0.25 0.391918 0.321408
59 1 0.5 0.276221 0.312989
87 1 0.75 0.391918 0.321408
113 1 0.25 0.526221 0.312989
161 1 0.75 0.526221 0.312989
107 1 2.59051e-16 0.776221 0.312989
131 1 1 0.641918 0.321408
155 1 0.5 0.776221 0.312989
179 1 0.5 0.641918 0.321408
135 1 0.25 0.891918 0.321408
183 1 0.75 0.891918 0.321408
15 1 0 0.159627 0.418184
40 1 0 0.0252981 0.426655
43 1 0.25 0.0836605 0.373994
63 1 0.5 0.159627 0.418184
88 1 0.5 0.0252981 0.426655
91 1 0.75 0.0836605 0.373994
18 1 0.25 0.217972 0.365558
36 1 1 0.33366 0.373994
44 1 0.25 0.275298 0.426655
66 1 0.75 0.217972 0.365558
84 1 0.5 0.33366 0.373994
92 1 0.75 0.275298 0.426655
12 1 1 0.467972 0.365558
19 1 0.25 0.409627 0.418184
60 1 0.5 0.467972 0.365558
67 1 0.75 0.409627 0.418184
136 1 1 0.525298 0.426655
139 1 0.25 0.58366 0.373994
184 1 0.5 0.525298 0.426655
187 1 0.75 0.58366 0.373994
111 1 1 0.659627 0.418184
114 1 0.25 0.717972 0.365558
140 1 0.25 0.775298 0.426655
159 1 0.5 0.659627 0.418184
162 1 0.75 0.717972 0.365558
188 1 0.75 0.775298 0.426655
108 1 1.27629e-16 0.967972 0.365558
115 1 0.25 0.909627 0.418184
132 1 1 0.83366 0.373994
156 1 0.5 0.967972 0.365558
163 1 0.75 0.909627 0.418184
180 1 0.5 0.83366 0.373994
20 1 1 0.0430432 0.523972
24 1 0.25 0.101401 0.47045
47 1 0.25 0.157912 0.532835
68 1 0.5 0.0430432 0.523972
72 1 0.75 0.101401 0.47045
95 1 0.75 0.157912 0.532835
16 1 1 0.351401 0.47045
22 1 0.25 0.293043 0.523972
41 1 1 0.217162 0.478838
64 1 0.5 0.351401 0.47045
70 1 0.75 0.293043 0.523972
89 1 0.5 0.217162 0.478838
42 1 4.59073e-17 0.407912 0.532835
45 1 0.25 0.467162 0.478838
90 1 0.5 0.407912 0.532835
93 1 0.75 0.467162 0.478838
116 1 1 0.543043 0.523972
164 1 0.5 0.543043 0.523972
118 1 0.25 0.793043 0.523972
120 1 0.25 0.601401 0.47045
137 1 0 0.717162 0.478838
143 1 0.25 0.657912 0.532835
166 1 0.75 0.793043 0.523972
168 1 0.75 0.601401 0.47045
185 1 0.5 0.717162 0.478838
191 1 0.75 0.657912 0.532835
112 1 1 0.851401 0.47045
138 1 1 0.907912 0.532835
141 1 0.25 0.967162 0.478838
160 1 0.5 0.851401 0.47045
186 1 0.5 0.907912 0.532835
189 1 0.75 0.967162 0.478838
46 1 0 0.105025 0.58181
94 1 0.5 0.105025 0.58181
21 1 0 0.239595 0.573126
48 1 0.25 0.355025 0.58181
69 1 0.5 0.239595 0.573126
96 1 0.75 0.355025 0.58181
23 1 0.25 0.489595 0.573126
71 1 0.75 0.489595 0.573126
117 1 0 0.739595 0.573126
142 1 0 0.605025 0.58181
165 1 0.5 0.739595 0.573126
190 1 0.5 0.605025 0.58181
119 1 0.25 0.989595 0.573126
144 1 0.25 0.855025 0.58181
167 1 0.75 0.989595 0.573126
192 1 0.75 0.855025 0.58181
