ITEM: TIMESTEP
273
ITEM: NUMBER OF ATOMS
192
ITEM: BOX BOUNDS pp pp pp
0.0000000000000000e+00 7.1176886540000002e+00
0.0000000000000000e+00 2.5858194780409800e+01
0.0000000000000000e+00 4.8301037599330101e+01
ITEM: ATOMS id type xs ys zs
1 1 0 0.121395 0
7 1 0.25 0.0650943 0.0442797
49 1 0.5 0.121395 0
55 1 0.75 0.0650943 0.0442797
2 1 3.36001e-17 0.315094 0.0442797
26 1 0 0.179996 0.0544348
28 1 0.25 0.236825 0.00919034
50 1 0.5 0.315094 0.0442797
74 1 0.5 0.179996 0.0544348
76 1 0.75 0.236825 0.00919034
3 1 0.25 0.371395 0
25 1 0 0.486825 0.00919034
29 1 0.25 0.429996 0.0544348
51 1 0.75 0.371395 0
73 1 0.5 0.486825 0.00919034
77 1 0.75 0.429996 0.0544348
97 1 0 0.621395 0
103 1 0.25 0.565094 0.0442797
145 1 0.5 0.621395 0
151 1 0.75 0.565094 0.0442797
98 1 3.56679e-17 0.815094 0.0442797
122 1 4.00817e-17 0.679996 0.0544348
124 1 0.25 0.736825 0.00919034
146 1 0.5 0.815094 0.0442797
170 1 0.5 0.679996 0.0544348
172 1 0.75 0.736825 0.00919034
99 1 0.25 0.871395 0
121 1 0 0.986825 0.00919034
125 1 0.25 0.929996 0.0544348
147 1 0.75 0.871395 0
169 1 0.5 0.986825 0.00919034
173 1 0.75 0.929996 0.0544348
4 1 0 0.00715404 0.0899938
33 1 0.25 0.122177 0.101106
52 1 0.5 0.00715404 0.0899938
81 1 0.75 0.122177 0.101106
30 1 3.41948e-17 0.0646243 0.147338
78 1 0.5 0.0646243 0.147338
5 1 1 0.199689 0.136264
8 1 0.25 0.257154 0.0899938
53 1 0.5 0.199689 0.136264
56 1 0.75 0.257154 0.0899938
34 1 0.25 0.314624 0.147338
82 1 0.75 0.314624 0.147338
9 1 0.25 0.449689 0.136264
27 1 0 0.372177 0.101106
57 1 0.75 0.449689 0.136264
75 1 0.5 0.372177 0.101106
100 1 1.04306e-17 0.507154 0.0899938
129 1 0.25 0.622177 0.101106
148 1 0.5 0.507154 0.0899938
177 1 0.75 0.622177 0.101106
126 1 0 0.564624 0.147338
174 1 0.5 0.564624 0.147338
101 1 0 0.699689 0.136264
104 1 0.25 0.757154 0.0899938
149 1 0.5 0.699689 0.136264
152 1 0.75 0.757154 0.0899938
130 1 0.25 0.814624 0.147338
178 1 0.75 0.814624 0.147338
105 1 0.25 0.949689 0.136264
123 1 1.74769e-17 0.872177 0.101106
153 1 0.75 0.949689 0.136264
171 1 0.5 0.872177 0.101106
13 1 0.25 0.142091 0.182864
37 1 0.25 0.00705467 0.193131
61 1 0.75 0.142091 0.182864
85 1 0.75 0.00705467 0.193131
10 1 0 0.0845159 0.228388
58 1 0.5 0.0845159 0.228388
31 1 4.88341e-17 0.257055 0.193131
79 1 0.5 0.257055 0.193131
38 1 0.25 0.199479 0.237254
86 1 0.75 0.199479 0.237254
6 1 0 0.392091 0.182864
54 1 0.5 0.392091 0.182864
14 1 0.25 0.334516 0.228388
32 1 0 0.449479 0.237254
62 1 0.75 0.334516 0.228388
80 1 0.5 0.449479 0.237254
109 1 0.25 0.642091 0.182864
133 1 0.25 0.507055 0.193131
157 1 0.75 0.642091 0.182864
181 1 0.75 0.507055 0.193131
106 1 0 0.584516 0.228388
154 1 0.5 0.584516 0.228388
127 1 4.16389e-17 0.757055 0.193131
175 1 0.5 0.757055 0.193131
134 1 0.25 0.699479 0.237254
182 1 0.75 0.699479 0.237254
102 1 7.3366e-17 0.892091 0.182864
150 1 0.5 0.892091 0.182864
110 1 0.25 0.834516 0.228388
128 1 1 0.949479 0.237254
158 1 0.75 0.834516 0.228388
176 1 0.5 0.949479 0.237254
135 1 0.483333 0.125237 0.387302
183 1 0.983333 0.125237 0.387302
107 1 0.233333 0.0102743 0.378437
155 1 0.733333 0.0102743 0.378437
17 1 0.483333 0.260274 0.378437
65 1 0.983333 0.260274 0.378437
35 1 0.233333 0.375237 0.387302
83 1 0.733333 0.375237 0.387302
11 1 0.233333 0.510274 0.378437
59 1 0.733333 0.510274 0.378437
39 1 0.483333 0.625237 0.387302
87 1 0.983333 0.625237 0.387302
113 1 0.483333 0.760274 0.378437
161 1 0.983333 0.760274 0.378437
131 1 0.233333 0.875237 0.387302
179 1 0.733333 0.875237 0.387302
115 1 0.483333 0.145129 0.468353
163 1 0.983333 0.145129 0.468353
132 1 0.233333 0.0676618 0.432826
180 1 0.733333 0.0676618 0.432826
140 1 0.483333 0.0100642 0.479426
188 1 0.983333 0.0100642 0.479426
108 1 0.233333 0.202698 0.422559
156 1 0.733333 0.202698 0.422559
40 1 0.233333 0.260064 0.479426
88 1 0.733333 0.260064 0.479426
43 1 0.483333 0.317662 0.432826
91 1 0.983333 0.317662 0.432826
15 1 0.233333 0.395129 0.468353
63 1 0.733333 0.395129 0.468353
18 1 0.483333 0.452698 0.422559
66 1 0.983333 0.452698 0.422559
44 1 0.483333 0.510064 0.479426
92 1 0.983333 0.510064 0.479426
36 1 0.233333 0.567662 0.432826
84 1 0.733333 0.567662 0.432826
19 1 0.483333 0.645129 0.468353
67 1 0.983333 0.645129 0.468353
12 1 0.233333 0.702698 0.422559
60 1 0.733333 0.702698 0.422559
136 1 0.233333 0.760064 0.479426
184 1 0.733333 0.760064 0.479426
139 1 0.483333 0.817662 0.432826
187 1 0.983333 0.817662 0.432826
111 1 0.233333 0.895129 0.468353
159 1 0.733333 0.895129 0.468353
114 1 0.483333 0.952698 0.422559
162 1 0.983333 0.952698 0.422559
138 1 0.233333 0.144659 0.571411
186 1 0.733333 0.144659 0.571411
112 1 0.233333 0.0875757 0.514584
160 1 0.733333 0.0875757 0.514584
118 1 0.483333 0.0297573 0.561256
166 1 0.983333 0.0297573 0.561256
141 1 0.483333 0.202599 0.525697
189 1 0.983333 0.202599 0.525697
20 1 0.233333 0.279757 0.561256
68 1 0.733333 0.279757 0.561256
24 1 0.483333 0.337576 0.514584
72 1 0.983333 0.337576 0.514584
47 1 0.483333 0.394659 0.571411
95 1 0.983333 0.394659 0.571411
41 1 0.233333 0.452599 0.525697
89 1 0.733333 0.452599 0.525697
22 1 0.483333 0.529757 0.561256
70 1 0.983333 0.529757 0.561256
16 1 0.233333 0.587576 0.514584
64 1 0.733333 0.587576 0.514584
42 1 0.233333 0.644659 0.571411
90 1 0.733333 0.644659 0.571411
45 1 0.483333 0.702599 0.525697
93 1 0.983333 0.702599 0.525697
116 1 0.233333 0.779757 0.561256
164 1 0.733333 0.779757 0.561256
120 1 0.483333 0.837576 0.514584
168 1 0.983333 0.837576 0.514584
143 1 0.483333 0.894659 0.571411
191 1 0.983333 0.894659 0.571411
137 1 0.233333 0.952599 0.525697
185 1 0.733333 0.952599 0.525697
144 1 0.483333 0.0883583 0.615691
192 1 0.983333 0.0883583 0.615691
119 1 0.483333 0.222928 0.6065
167 1 0.983333 0.222928 0.6065
46 1 0.233333 0.338358 0.615691
94 1 0.733333 0.338358 0.615691
21 1 0.233333 0.472928 0.6065
69 1 0.733333 0.472928 0.6065
48 1 0.483333 0.588358 0.615691
96 1 0.983333 0.588358 0.615691
23 1 0.483333 0.722928 0.6065
71 1 0.983333 0.722928 0.6065
142 1 0.233333 0.838358 0.615691
190 1 0.733333 0.838358 0.615691
117 1 0.233333 0.972928 0.6065
165 1 0.733333 0.972928 0.6065
