ITEM: TIMESTEP
195
ITEM: NUMBER OF ATOMS
192
ITEM: BOX BOUNDS pp pp pp
0.0000000000000000e+00 7.1176886540000002e+00
0.0000000000000000e+00 2.5858194780409800e+01
0.0000000000000000e+00 4.8301037599330101e+01
ITEM: ATOMS id type xs ys zs
1 1 0 0.121395 0
7 1 0.25 0.0650943 0.0443654
49 1 0.5 0.121395 0
55 1 0.75 0.0650943 0.0443654
2 1 3.36001e-17 0.315094 0.0443654
26 1 0 0.179996 0.0544857
28 1 0.25 0.236825 0.00919034
50 1 0.5 0.315094 0.0443654
74 1 0.5 0.179996 0.0544857
76 1 0.75 0.236825 0.00919034
3 1 0.25 0.371395 0
25 1 0 0.486825 0.00919034
29 1 0.25 0.429996 0.0544857
51 1 0.75 0.371395 0
73 1 0.5 0.486825 0.00919034
77 1 0.75 0.429996 0.0544857
97 1 0 0.621395 0
103 1 0.25 0.565094 0.0443654
145 1 0.5 0.621395 0
151 1 0.75 0.565094 0.0443654
98 1 3.56679e-17 0.815094 0.0443654
122 1 4.00817e-17 0.679996 0.0544857
124 1 0.25 0.736825 0.00919034
146 1 0.5 0.815094 0.0443654
170 1 0.5 0.679996 0.0544857
172 1 0.75 0.736825 0.00919034
99 1 0.25 0.871395 0
121 1 0 0.986825 0.00919034
125 1 0.25 0.929996 0.0544857
147 1 0.75 0.871395 0
169 1 0.5 0.986825 0.00919034
173 1 0.75 0.929996 0.0544857
4 1 0 0.00715404 0.0902139
33 1 0.25 0.122177 0.101282
52 1 0.5 0.00715404 0.0902139
81 1 0.75 0.122177 0.101282
30 1 3.41948e-17 0.0646243 0.147644
78 1 0.5 0.0646243 0.147644
5 1 1 0.199689 0.136608
8 1 0.25 0.257154 0.0902139
53 1 0.5 0.199689 0.136608
56 1 0.75 0.257154 0.0902139
34 1 0.25 0.314624 0.147644
82 1 0.75 0.314624 0.147644
9 1 0.25 0.449689 0.136608
27 1 0 0.372177 0.101282
57 1 0.75 0.449689 0.136608
75 1 0.5 0.372177 0.101282
100 1 1.04306e-17 0.507154 0.0902139
129 1 0.25 0.622177 0.101282
148 1 0.5 0.507154 0.0902139
177 1 0.75 0.622177 0.101282
126 1 0 0.564624 0.147644
174 1 0.5 0.564624 0.147644
101 1 0 0.699689 0.136608
104 1 0.25 0.757154 0.0902139
149 1 0.5 0.699689 0.136608
152 1 0.75 0.757154 0.0902139
130 1 0.25 0.814624 0.147644
178 1 0.75 0.814624 0.147644
105 1 0.25 0.949689 0.136608
123 1 1.74769e-17 0.872177 0.101282
153 1 0.75 0.949689 0.136608
171 1 0.5 0.872177 0.101282
13 1 0.25 0.142091 0.183336
37 1 0.25 0.00705467 0.193567
61 1 0.75 0.142091 0.183336
85 1 0.75 0.00705467 0.193567
10 1 0 0.0845159 0.22889
58 1 0.5 0.0845159 0.22889
31 1 4.88341e-17 0.257055 0.193567
79 1 0.5 0.257055 0.193567
38 1 0.25 0.199479 0.237787
86 1 0.75 0.199479 0.237787
6 1 0 0.392091 0.183336
54 1 0.5 0.392091 0.183336
14 1 0.25 0.334516 0.22889
32 1 0 0.449479 0.237787
62 1 0.75 0.334516 0.22889
80 1 0.5 0.449479 0.237787
109 1 0.25 0.642091 0.183336
133 1 0.25 0.507055 0.193567
157 1 0.75 0.642091 0.183336
181 1 0.75 0.507055 0.193567
106 1 0 0.584516 0.22889
154 1 0.5 0.584516 0.22889
127 1 4.16389e-17 0.757055 0.193567
175 1 0.5 0.757055 0.193567
134 1 0.25 0.699479 0.237787
182 1 0.75 0.699479 0.237787
102 1 7.3366e-17 0.892091 0.183336
150 1 0.5 0.892091 0.183336
110 1 0.25 0.834516 0.22889
128 1 1 0.949479 0.237787
158 1 0.75 0.834516 0.22889
176 1 0.5 0.949479 0.237787
135 1 0.4 0.0419037 0.3868
183 1 0.9 0.0419037 0.3868
17 1 0.4 0.176941 0.377903
65 1 0.9 0.176941 0.377903
35 1 0.15 0.291904 0.3868
83 1 0.65 0.291904 0.3868
11 1 0.15 0.426941 0.377903
59 1 0.65 0.426941 0.377903
39 1 0.4 0.541904 0.3868
87 1 0.9 0.541904 0.3868
113 1 0.4 0.676941 0.377903
161 1 0.9 0.676941 0.377903
131 1 0.15 0.791904 0.3868
179 1 0.65 0.791904 0.3868
107 1 0.15 0.926941 0.377903
155 1 0.65 0.926941 0.377903
108 1 0.15 0.119365 0.422123
156 1 0.65 0.119365 0.422123
115 1 0.4 0.0617953 0.468047
163 1 0.9 0.0617953 0.468047
40 1 0.15 0.176731 0.479082
88 1 0.65 0.176731 0.479082
43 1 0.4 0.234329 0.432354
91 1 0.9 0.234329 0.432354
15 1 0.15 0.311795 0.468047
63 1 0.65 0.311795 0.468047
18 1 0.4 0.369365 0.422123
66 1 0.9 0.369365 0.422123
44 1 0.4 0.426731 0.479082
92 1 0.9 0.426731 0.479082
36 1 0.15 0.484329 0.432354
84 1 0.65 0.484329 0.432354
19 1 0.4 0.561795 0.468047
67 1 0.9 0.561795 0.468047
12 1 0.15 0.619365 0.422123
60 1 0.65 0.619365 0.422123
136 1 0.15 0.676731 0.479082
184 1 0.65 0.676731 0.479082
139 1 0.4 0.734329 0.432354
187 1 0.9 0.734329 0.432354
111 1 0.15 0.811795 0.468047
159 1 0.65 0.811795 0.468047
114 1 0.4 0.869365 0.422123
162 1 0.9 0.869365 0.422123
140 1 0.4 0.926731 0.479082
188 1 0.9 0.926731 0.479082
132 1 0.15 0.984329 0.432354
180 1 0.65 0.984329 0.432354
141 1 0.4 0.119266 0.525477
189 1 0.9 0.119266 0.525477
138 1 0.15 0.0613256 0.571325
186 1 0.65 0.0613256 0.571325
112 1 0.15 0.00424239 0.514409
160 1 0.65 0.00424239 0.514409
20 1 0.15 0.196424 0.561205
68 1 0.65 0.196424 0.561205
24 1 0.4 0.254242 0.514409
72 1 0.9 0.254242 0.514409
47 1 0.4 0.311326 0.571325
95 1 0.9 0.311326 0.571325
41 1 0.15 0.369266 0.525477
89 1 0.65 0.369266 0.525477
22 1 0.4 0.446424 0.561205
70 1 0.9 0.446424 0.561205
16 1 0.15 0.504242 0.514409
64 1 0.65 0.504242 0.514409
42 1 0.15 0.561326 0.571325
90 1 0.65 0.561326 0.571325
45 1 0.4 0.619266 0.525477
93 1 0.9 0.619266 0.525477
116 1 0.15 0.696424 0.561205
164 1 0.65 0.696424 0.561205
120 1 0.4 0.754242 0.514409
168 1 0.9 0.754242 0.514409
143 1 0.4 0.811326 0.571325
191 1 0.9 0.811326 0.571325
137 1 0.15 0.869266 0.525477
185 1 0.65 0.869266 0.525477
118 1 0.4 0.946424 0.561205
166 1 0.9 0.946424 0.561205
119 1 0.4 0.139595 0.6065
167 1 0.9 0.139595 0.6065
144 1 0.4 0.00502499 0.615691
192 1 0.9 0.00502499 0.615691
46 1 0.15 0.255025 0.615691
94 1 0.65 0.255025 0.615691
21 1 0.15 0.389595 0.6065
69 1 0.65 0.389595 0.6065
48 1 0.4 0.505025 0.615691
96 1 0.9 0.505025 0.615691
23 1 0.4 0.639595 0.6065
71 1 0.9 0.639595 0.6065
142 1 0.15 0.755025 0.615691
190 1 0.65 0.755025 0.615691
117 1 0.15 0.889595 0.6065
165 1 0.65 0.889595 0.6065
