ITEM: TIMESTEP
185
ITEM: NUMBER OF ATOMS
192
ITEM: BOX BOUNDS pp pp pp
0.0000000000000000e+00 5.9011998176000002e+00
0.0000000000000000e+00 2.1324426539756200e+01
0.0000000000000000e+00 4.3042699813799999e+01
ITEM: ATOMS id type xs ys zs
1 1 0 0.121395 0
7 1 0.25 0.0685083 0.048392
26 1 1 0.183377 0.0572976
49 1 0.5 0.121395 0
55 1 0.75 0.0685083 0.048392
74 1 0.5 0.183377 0.0572976
2 1 0 0.318508 0.048392
3 1 0.25 0.371395 0
28 1 0.25 0.236825 0.00868461
50 1 0.5 0.318508 0.048392
51 1 0.75 0.371395 0
76 1 0.75 0.236825 0.00868461
25 1 0 0.486825 0.00868461
29 1 0.25 0.433377 0.0572976
73 1 0.5 0.486825 0.00868461
77 1 0.75 0.433377 0.0572976
103 1 0.25 0.568508 0.048392
151 1 0.75 0.568508 0.048392
97 1 0 0.621395 0
122 1 1 0.683377 0.0572976
124 1 0.25 0.736825 0.00868461
145 1 0.5 0.621395 0
170 1 0.5 0.683377 0.0572976
172 1 0.75 0.736825 0.00868461
98 1 1.50508e-16 0.818508 0.048392
99 1 0.25 0.871395 0
121 1 0 0.986825 0.00868461
125 1 0.25 0.933377 0.0572976
146 1 0.5 0.818508 0.048392
147 1 0.75 0.871395 0
169 1 0.5 0.986825 0.00868461
173 1 0.75 0.933377 0.0572976
4 1 0 0.00925805 0.101659
30 1 0 0.0667923 0.161721
33 1 0.25 0.125018 0.110202
52 1 0.5 0.00925805 0.101659
78 1 0.5 0.0667923 0.161721
81 1 0.75 0.125018 0.110202
5 1 0 0.201122 0.153309
53 1 0.5 0.201122 0.153309
8 1 0.25 0.259258 0.101659
27 1 0 0.375018 0.110202
34 1 0.25 0.316792 0.161721
56 1 0.75 0.259258 0.101659
75 1 0.5 0.375018 0.110202
82 1 0.75 0.316792 0.161721
9 1 0.25 0.451122 0.153309
57 1 0.75 0.451122 0.153309
100 1 1 0.509258 0.101659
126 1 0 0.566792 0.161721
148 1 0.5 0.509258 0.101659
174 1 0.5 0.566792 0.161721
101 1 0 0.701122 0.153309
104 1 0.25 0.759258 0.101659
129 1 0.25 0.625018 0.110202
149 1 0.5 0.701122 0.153309
152 1 0.75 0.759258 0.101659
177 1 0.75 0.625018 0.110202
105 1 0.25 0.951122 0.153309
123 1 2.18999e-17 0.875018 0.110202
130 1 0.25 0.816792 0.161721
153 1 0.75 0.951122 0.153309
171 1 0.5 0.875018 0.110202
178 1 0.75 0.816792 0.161721
10 1 1 0.0845017 0.258721
13 1 0.25 0.142759 0.206252
37 1 0.25 0.0084478 0.21391
58 1 0.5 0.0845017 0.258721
61 1 0.75 0.142759 0.206252
85 1 0.75 0.0084478 0.21391
38 1 0.25 0.200198 0.263676
86 1 0.75 0.200198 0.263676
6 1 1 0.392759 0.206252
14 1 0.25 0.334502 0.258721
31 1 2.09346e-16 0.258448 0.21391
54 1 0.5 0.392759 0.206252
62 1 0.75 0.334502 0.258721
79 1 0.5 0.258448 0.21391
32 1 0 0.450198 0.263676
80 1 0.5 0.450198 0.263676
106 1 1.50508e-16 0.584502 0.258721
133 1 0.25 0.508448 0.21391
154 1 0.5 0.584502 0.258721
181 1 0.75 0.508448 0.21391
109 1 0.25 0.642759 0.206252
127 1 1.46313e-17 0.758448 0.21391
134 1 0.25 0.700198 0.263676
157 1 0.75 0.642759 0.206252
175 1 0.5 0.758448 0.21391
182 1 0.75 0.700198 0.263676
102 1 0 0.892759 0.206252
110 1 0.25 0.834502 0.258721
128 1 1.50508e-16 0.950198 0.263676
150 1 0.5 0.892759 0.206252
158 1 0.75 0.834502 0.258721
176 1 0.5 0.950198 0.263676
135 1 0.441667 0.0835845 0.323089
183 1 0.941667 0.0835845 0.323089
17 1 0.441667 0.217888 0.318135
65 1 0.941667 0.217888 0.318135
35 1 0.191667 0.333585 0.323089
83 1 0.691667 0.333585 0.323089
11 1 0.191667 0.467888 0.318135
59 1 0.691667 0.467888 0.318135
39 1 0.441667 0.583585 0.323089
87 1 0.941667 0.583585 0.323089
113 1 0.441667 0.717888 0.318135
161 1 0.941667 0.717888 0.318135
131 1 0.191667 0.833585 0.323089
179 1 0.691667 0.833585 0.323089
107 1 0.191667 0.967888 0.318135
155 1 0.691667 0.967888 0.318135
108 1 0.191667 0.159638 0.3679
156 1 0.691667 0.159638 0.3679
115 1 0.441667 0.101294 0.42009
163 1 0.941667 0.101294 0.42009
132 1 0.191667 0.0253272 0.375558
180 1 0.691667 0.0253272 0.375558
40 1 0.191667 0.216965 0.428501
88 1 0.691667 0.216965 0.428501
43 1 0.441667 0.275327 0.375558
91 1 0.941667 0.275327 0.375558
15 1 0.191667 0.351294 0.42009
63 1 0.691667 0.351294 0.42009
18 1 0.441667 0.409638 0.3679
66 1 0.941667 0.409638 0.3679
44 1 0.441667 0.466965 0.428501
92 1 0.941667 0.466965 0.428501
36 1 0.191667 0.525327 0.375558
84 1 0.691667 0.525327 0.375558
19 1 0.441667 0.601294 0.42009
67 1 0.941667 0.601294 0.42009
12 1 0.191667 0.659638 0.3679
60 1 0.691667 0.659638 0.3679
136 1 0.191667 0.716965 0.428501
184 1 0.691667 0.716965 0.428501
139 1 0.441667 0.775327 0.375558
187 1 0.941667 0.775327 0.375558
111 1 0.191667 0.851294 0.42009
159 1 0.691667 0.851294 0.42009
114 1 0.441667 0.909638 0.3679
162 1 0.941667 0.909638 0.3679
140 1 0.441667 0.966965 0.428501
188 1 0.941667 0.966965 0.428501
141 1 0.441667 0.158828 0.480152
189 1 0.941667 0.158828 0.480152
138 1 0.191667 0.0995783 0.533418
186 1 0.691667 0.0995783 0.533418
112 1 0.191667 0.043068 0.471608
160 1 0.691667 0.043068 0.471608
20 1 0.191667 0.23471 0.524513
68 1 0.691667 0.23471 0.524513
24 1 0.441667 0.293068 0.471608
72 1 0.941667 0.293068 0.471608
47 1 0.441667 0.349578 0.533418
95 1 0.941667 0.349578 0.533418
41 1 0.191667 0.408828 0.480152
89 1 0.691667 0.408828 0.480152
22 1 0.441667 0.48471 0.524513
70 1 0.941667 0.48471 0.524513
16 1 0.191667 0.543068 0.471608
64 1 0.691667 0.543068 0.471608
42 1 0.191667 0.599578 0.533418
90 1 0.691667 0.599578 0.533418
45 1 0.441667 0.658828 0.480152
93 1 0.941667 0.658828 0.480152
116 1 0.191667 0.73471 0.524513
164 1 0.691667 0.73471 0.524513
120 1 0.441667 0.793068 0.471608
168 1 0.941667 0.793068 0.471608
143 1 0.441667 0.849578 0.533418
191 1 0.941667 0.849578 0.533418
137 1 0.191667 0.908828 0.480152
185 1 0.691667 0.908828 0.480152
118 1 0.441667 0.98471 0.524513
166 1 0.941667 0.98471 0.524513
119 1 0.441667 0.181262 0.573126
167 1 0.941667 0.181262 0.573126
144 1 0.441667 0.0466917 0.58181
192 1 0.941667 0.0466917 0.58181
46 1 0.191667 0.296692 0.58181
94 1 0.691667 0.296692 0.58181
21 1 0.191667 0.431262 0.573126
69 1 0.691667 0.431262 0.573126
48 1 0.441667 0.546692 0.58181
96 1 0.941667 0.546692 0.58181
23 1 0.441667 0.681262 0.573126
71 1 0.941667 0.681262 0.573126
142 1 0.191667 0.796692 0.58181
190 1 0.691667 0.796692 0.58181
117 1 0.191667 0.931262 0.573126
165 1 0.691667 0.931262 0.573126
