ITEM: TIMESTEP
133
ITEM: NUMBER OF ATOMS
192
ITEM: BOX BOUNDS pp pp pp
0.0000000000000000e+00 5.9011998176000002e+00
0.0000000000000000e+00 2.1324426539756200e+01
0.0000000000000000e+00 4.3042699813799999e+01
ITEM: ATOMS id type xs ys zs
1 1 0 0.121395 0
7 1 0.25 0.0685083 0.0484831
26 1 1 0.183377 0.0573747
49 1 0.5 0.121395 0
55 1 0.75 0.0685083 0.0484831
74 1 0.5 0.183377 0.0573747
2 1 0 0.318508 0.0484831
3 1 0.25 0.371395 0
28 1 0.25 0.236825 0.00868461
50 1 0.5 0.318508 0.0484831
51 1 0.75 0.371395 0
76 1 0.75 0.236825 0.00868461
25 1 0 0.486825 0.00868461
29 1 0.25 0.433377 0.0573747
73 1 0.5 0.486825 0.00868461
77 1 0.75 0.433377 0.0573747
103 1 0.25 0.568508 0.0484831
151 1 0.75 0.568508 0.0484831
97 1 0 0.621395 0
122 1 1 0.683377 0.0573747
124 1 0.25 0.736825 0.00868461
145 1 0.5 0.621395 0
170 1 0.5 0.683377 0.0573747
172 1 0.75 0.736825 0.00868461
98 1 1.50508e-16 0.818508 0.0484831
99 1 0.25 0.871395 0
121 1 0 0.986825 0.00868461
125 1 0.25 0.933377 0.0573747
146 1 0.5 0.818508 0.0484831
147 1 0.75 0.871395 0
169 1 0.5 0.986825 0.00868461
173 1 0.75 0.933377 0.0573747
4 1 0 0.00925805 0.101859
30 1 0 0.0667923 0.161887
33 1 0.25 0.125018 0.110382
52 1 0.5 0.00925805 0.101859
78 1 0.5 0.0667923 0.161887
81 1 0.75 0.125018 0.110382
5 1 0 0.201122 0.153751
53 1 0.5 0.201122 0.153751
8 1 0.25 0.259258 0.101859
27 1 0 0.375018 0.110382
34 1 0.25 0.316792 0.161887
56 1 0.75 0.259258 0.101859
75 1 0.5 0.375018 0.110382
82 1 0.75 0.316792 0.161887
9 1 0.25 0.451122 0.153751
57 1 0.75 0.451122 0.153751
100 1 1 0.509258 0.101859
126 1 0 0.566792 0.161887
148 1 0.5 0.509258 0.101859
174 1 0.5 0.566792 0.161887
101 1 0 0.701122 0.153751
104 1 0.25 0.759258 0.101859
129 1 0.25 0.625018 0.110382
149 1 0.5 0.701122 0.153751
152 1 0.75 0.759258 0.101859
177 1 0.75 0.625018 0.110382
105 1 0.25 0.951122 0.153751
123 1 2.18999e-17 0.875018 0.110382
130 1 0.25 0.816792 0.161887
153 1 0.75 0.951122 0.153751
171 1 0.5 0.875018 0.110382
178 1 0.75 0.816792 0.161887
10 1 1 0.0845017 0.260294
13 1 0.25 0.142759 0.206581
37 1 0.25 0.0084478 0.214025
58 1 0.5 0.0845017 0.260294
61 1 0.75 0.142759 0.206581
85 1 0.75 0.0084478 0.214025
38 1 0.25 0.200198 0.264004
86 1 0.75 0.200198 0.264004
6 1 1 0.392759 0.206581
14 1 0.25 0.334502 0.260294
31 1 2.09346e-16 0.258448 0.214025
54 1 0.5 0.392759 0.206581
62 1 0.75 0.334502 0.260294
79 1 0.5 0.258448 0.214025
32 1 0 0.450198 0.264004
80 1 0.5 0.450198 0.264004
106 1 1.50508e-16 0.584502 0.260294
133 1 0.25 0.508448 0.214025
154 1 0.5 0.584502 0.260294
181 1 0.75 0.508448 0.214025
109 1 0.25 0.642759 0.206581
127 1 1.46313e-17 0.758448 0.214025
134 1 0.25 0.700198 0.264004
157 1 0.75 0.642759 0.206581
175 1 0.5 0.758448 0.214025
182 1 0.75 0.700198 0.264004
102 1 0 0.892759 0.206581
110 1 0.25 0.834502 0.260294
128 1 1.50508e-16 0.950198 0.264004
150 1 0.5 0.892759 0.206581
158 1 0.75 0.834502 0.260294
176 1 0.5 0.950198 0.264004
17 1 0.383333 0.159555 0.317806
65 1 0.883333 0.159555 0.317806
135 1 0.383333 0.0252512 0.321516
183 1 0.883333 0.0252512 0.321516
35 1 0.133333 0.275251 0.321516
83 1 0.633333 0.275251 0.321516
11 1 0.133333 0.409555 0.317806
59 1 0.633333 0.409555 0.317806
39 1 0.383333 0.525251 0.321516
87 1 0.883333 0.525251 0.321516
113 1 0.383333 0.659555 0.317806
161 1 0.883333 0.659555 0.317806
131 1 0.133333 0.775251 0.321516
179 1 0.633333 0.775251 0.321516
107 1 0.133333 0.909555 0.317806
155 1 0.633333 0.909555 0.317806
40 1 0.133333 0.158631 0.428059
88 1 0.633333 0.158631 0.428059
108 1 0.133333 0.101305 0.367786
156 1 0.633333 0.101305 0.367786
115 1 0.383333 0.0429607 0.419924
163 1 0.883333 0.0429607 0.419924
43 1 0.383333 0.216994 0.375229
91 1 0.883333 0.216994 0.375229
15 1 0.133333 0.292961 0.419924
63 1 0.633333 0.292961 0.419924
18 1 0.383333 0.351305 0.367786
66 1 0.883333 0.351305 0.367786
44 1 0.383333 0.408631 0.428059
92 1 0.883333 0.408631 0.428059
36 1 0.133333 0.466994 0.375229
84 1 0.633333 0.466994 0.375229
19 1 0.383333 0.542961 0.419924
67 1 0.883333 0.542961 0.419924
12 1 0.133333 0.601305 0.367786
60 1 0.633333 0.601305 0.367786
136 1 0.133333 0.658631 0.428059
184 1 0.633333 0.658631 0.428059
139 1 0.383333 0.716994 0.375229
187 1 0.883333 0.716994 0.375229
111 1 0.133333 0.792961 0.419924
159 1 0.633333 0.792961 0.419924
114 1 0.383333 0.851305 0.367786
162 1 0.883333 0.851305 0.367786
140 1 0.383333 0.908631 0.428059
188 1 0.883333 0.908631 0.428059
132 1 0.133333 0.966994 0.375229
180 1 0.633333 0.966994 0.375229
20 1 0.133333 0.176377 0.524436
68 1 0.633333 0.176377 0.524436
141 1 0.383333 0.100495 0.479951
189 1 0.883333 0.100495 0.479951
138 1 0.133333 0.0412449 0.533327
186 1 0.633333 0.0412449 0.533327
24 1 0.383333 0.234735 0.471428
72 1 0.883333 0.234735 0.471428
47 1 0.383333 0.291245 0.533327
95 1 0.883333 0.291245 0.533327
41 1 0.133333 0.350495 0.479951
89 1 0.633333 0.350495 0.479951
22 1 0.383333 0.426377 0.524436
70 1 0.883333 0.426377 0.524436
16 1 0.133333 0.484735 0.471428
64 1 0.633333 0.484735 0.471428
42 1 0.133333 0.541245 0.533327
90 1 0.633333 0.541245 0.533327
45 1 0.383333 0.600495 0.479951
93 1 0.883333 0.600495 0.479951
116 1 0.133333 0.676377 0.524436
164 1 0.633333 0.676377 0.524436
120 1 0.383333 0.734735 0.471428
143 1 0.383333 0.791245 0.533327
168 1 0.883333 0.734735 0.471428
191 1 0.883333 0.791245 0.533327
137 1 0.133333 0.850495 0.479951
185 1 0.633333 0.850495 0.479951
118 1 0.383333 0.926377 0.524436
166 1 0.883333 0.926377 0.524436
112 1 0.133333 0.984735 0.471428
160 1 0.633333 0.984735 0.471428
119 1 0.383333 0.122928 0.573126
167 1 0.883333 0.122928 0.573126
46 1 0.133333 0.238358 0.58181
94 1 0.633333 0.238358 0.58181
21 1 0.133333 0.372928 0.573126
69 1 0.633333 0.372928 0.573126
48 1 0.383333 0.488358 0.58181
96 1 0.883333 0.488358 0.58181
23 1 0.383333 0.622928 0.573126
71 1 0.883333 0.622928 0.573126
142 1 0.133333 0.738358 0.58181
190 1 0.633333 0.738358 0.58181
117 1 0.133333 0.872928 0.573126
165 1 0.633333 0.872928 0.573126
144 1 0.383333 0.988358 0.58181
192 1 0.883333 0.988358 0.58181
