ITEM: TIMESTEP
224
ITEM: NUMBER OF ATOMS
192
ITEM: BOX BOUNDS pp pp pp
0.0000000000000000e+00 7.1176886540000002e+00
0.0000000000000000e+00 2.5858194780409800e+01
0.0000000000000000e+00 4.8301037599330101e+01
ITEM: ATOMS id type xs ys zs
1 1 0 0.121395 0
7 1 0.25 0.0650943 0.0443488
49 1 0.5 0.121395 0
55 1 0.75 0.0650943 0.0443488
2 1 3.36001e-17 0.315094 0.0443488
26 1 0 0.179996 0.0544757
28 1 0.25 0.236825 0.00919034
50 1 0.5 0.315094 0.0443488
74 1 0.5 0.179996 0.0544757
76 1 0.75 0.236825 0.00919034
3 1 0.25 0.371395 0
25 1 0 0.486825 0.00919034
29 1 0.25 0.429996 0.0544757
51 1 0.75 0.371395 0
73 1 0.5 0.486825 0.00919034
77 1 0.75 0.429996 0.0544757
97 1 0 0.621395 0
103 1 0.25 0.565094 0.0443488
145 1 0.5 0.621395 0
151 1 0.75 0.565094 0.0443488
98 1 3.56679e-17 0.815094 0.0443488
122 1 4.00817e-17 0.679996 0.0544757
124 1 0.25 0.736825 0.00919034
146 1 0.5 0.815094 0.0443488
170 1 0.5 0.679996 0.0544757
172 1 0.75 0.736825 0.00919034
99 1 0.25 0.871395 0
121 1 0 0.986825 0.00919034
125 1 0.25 0.929996 0.0544757
147 1 0.75 0.871395 0
169 1 0.5 0.986825 0.00919034
173 1 0.75 0.929996 0.0544757
4 1 0 0.00715404 0.0901714
33 1 0.25 0.122177 0.101248
52 1 0.5 0.00715404 0.0901714
81 1 0.75 0.122177 0.101248
30 1 3.41948e-17 0.0646243 0.147585
78 1 0.5 0.0646243 0.147585
5 1 1 0.199689 0.136542
8 1 0.25 0.257154 0.0901714
53 1 0.5 0.199689 0.136542
56 1 0.75 0.257154 0.0901714
34 1 0.25 0.314624 0.147585
82 1 0.75 0.314624 0.147585
9 1 0.25 0.449689 0.136542
27 1 0 0.372177 0.101248
57 1 0.75 0.449689 0.136542
75 1 0.5 0.372177 0.101248
100 1 1.04306e-17 0.507154 0.0901714
129 1 0.25 0.622177 0.101248
148 1 0.5 0.507154 0.0901714
177 1 0.75 0.622177 0.101248
126 1 0 0.564624 0.147585
174 1 0.5 0.564624 0.147585
101 1 0 0.699689 0.136542
104 1 0.25 0.757154 0.0901714
149 1 0.5 0.699689 0.136542
152 1 0.75 0.757154 0.0901714
130 1 0.25 0.814624 0.147585
178 1 0.75 0.814624 0.147585
105 1 0.25 0.949689 0.136542
123 1 1.74769e-17 0.872177 0.101248
153 1 0.75 0.949689 0.136542
171 1 0.5 0.872177 0.101248
13 1 0.25 0.142091 0.183244
37 1 0.25 0.00705467 0.193482
61 1 0.75 0.142091 0.183244
85 1 0.75 0.00705467 0.193482
10 1 0 0.0845159 0.228792
58 1 0.5 0.0845159 0.228792
31 1 4.88341e-17 0.257055 0.193482
79 1 0.5 0.257055 0.193482
38 1 0.25 0.199479 0.237683
86 1 0.75 0.199479 0.237683
6 1 0 0.392091 0.183244
54 1 0.5 0.392091 0.183244
14 1 0.25 0.334516 0.228792
32 1 0 0.449479 0.237683
62 1 0.75 0.334516 0.228792
80 1 0.5 0.449479 0.237683
109 1 0.25 0.642091 0.183244
133 1 0.25 0.507055 0.193482
157 1 0.75 0.642091 0.183244
181 1 0.75 0.507055 0.193482
106 1 0 0.584516 0.228792
154 1 0.5 0.584516 0.228792
127 1 4.16389e-17 0.757055 0.193482
175 1 0.5 0.757055 0.193482
134 1 0.25 0.699479 0.237683
182 1 0.75 0.699479 0.237683
102 1 7.3366e-17 0.892091 0.183244
150 1 0.5 0.892091 0.183244
110 1 0.25 0.834516 0.228792
128 1 1 0.949479 0.237683
158 1 0.75 0.834516 0.228792
176 1 0.5 0.949479 0.237683
135 1 0.441667 0.0835704 0.386898
183 1 0.941667 0.0835704 0.386898
17 1 0.441667 0.218608 0.378008
65 1 0.941667 0.218608 0.378008
35 1 0.191667 0.33357 0.386898
83 1 0.691667 0.33357 0.386898
11 1 0.191667 0.468608 0.378008
59 1 0.691667 0.468608 0.378008
39 1 0.441667 0.58357 0.386898
87 1 0.941667 0.58357 0.386898
113 1 0.441667 0.718608 0.378008
161 1 0.941667 0.718608 0.378008
131 1 0.191667 0.83357 0.386898
179 1 0.691667 0.83357 0.386898
107 1 0.191667 0.968608 0.378008
155 1 0.691667 0.968608 0.378008
108 1 0.191667 0.161032 0.422208
156 1 0.691667 0.161032 0.422208
115 1 0.441667 0.103462 0.468106
163 1 0.941667 0.103462 0.468106
132 1 0.191667 0.0259952 0.432447
180 1 0.691667 0.0259952 0.432447
40 1 0.191667 0.218398 0.479149
88 1 0.691667 0.218398 0.479149
43 1 0.441667 0.275995 0.432447
91 1 0.941667 0.275995 0.432447
15 1 0.191667 0.353462 0.468106
63 1 0.691667 0.353462 0.468106
18 1 0.441667 0.411032 0.422208
66 1 0.941667 0.411032 0.422208
44 1 0.441667 0.468398 0.479149
92 1 0.941667 0.468398 0.479149
36 1 0.191667 0.525995 0.432447
84 1 0.691667 0.525995 0.432447
19 1 0.441667 0.603462 0.468106
67 1 0.941667 0.603462 0.468106
12 1 0.191667 0.661032 0.422208
60 1 0.691667 0.661032 0.422208
136 1 0.191667 0.718398 0.479149
184 1 0.691667 0.718398 0.479149
139 1 0.441667 0.775995 0.432447
187 1 0.941667 0.775995 0.432447
111 1 0.191667 0.853462 0.468106
159 1 0.691667 0.853462 0.468106
114 1 0.441667 0.911032 0.422208
162 1 0.941667 0.911032 0.422208
140 1 0.441667 0.968398 0.479149
188 1 0.941667 0.968398 0.479149
141 1 0.441667 0.160932 0.525519
189 1 0.941667 0.160932 0.525519
138 1 0.191667 0.102992 0.571342
186 1 0.691667 0.102992 0.571342
112 1 0.191667 0.0459091 0.514443
160 1 0.691667 0.0459091 0.514443
20 1 0.191667 0.238091 0.561215
68 1 0.691667 0.238091 0.561215
24 1 0.441667 0.295909 0.514443
72 1 0.941667 0.295909 0.514443
47 1 0.441667 0.352992 0.571342
95 1 0.941667 0.352992 0.571342
41 1 0.191667 0.410932 0.525519
89 1 0.691667 0.410932 0.525519
22 1 0.441667 0.488091 0.561215
70 1 0.941667 0.488091 0.561215
16 1 0.191667 0.545909 0.514443
64 1 0.691667 0.545909 0.514443
42 1 0.191667 0.602992 0.571342
90 1 0.691667 0.602992 0.571342
45 1 0.441667 0.660932 0.525519
93 1 0.941667 0.660932 0.525519
116 1 0.191667 0.738091 0.561215
164 1 0.691667 0.738091 0.561215
120 1 0.441667 0.795909 0.514443
168 1 0.941667 0.795909 0.514443
143 1 0.441667 0.852992 0.571342
191 1 0.941667 0.852992 0.571342
137 1 0.191667 0.910932 0.525519
185 1 0.691667 0.910932 0.525519
118 1 0.441667 0.988091 0.561215
166 1 0.941667 0.988091 0.561215
144 1 0.441667 0.0466917 0.615691
192 1 0.941667 0.0466917 0.615691
119 1 0.441667 0.181262 0.6065
167 1 0.941667 0.181262 0.6065
46 1 0.191667 0.296692 0.615691
94 1 0.691667 0.296692 0.615691
21 1 0.191667 0.431262 0.6065
69 1 0.691667 0.431262 0.6065
48 1 0.441667 0.546692 0.615691
96 1 0.941667 0.546692 0.615691
23 1 0.441667 0.681262 0.6065
71 1 0.941667 0.681262 0.6065
142 1 0.191667 0.796692 0.615691
190 1 0.691667 0.796692 0.615691
117 1 0.191667 0.931262 0.6065
165 1 0.691667 0.931262 0.6065
