ITEM: TIMESTEP
63
ITEM: NUMBER OF ATOMS
192
ITEM: BOX BOUNDS pp pp pp
0.0000000000000000e+00 7.1176886540000002e+00
0.0000000000000000e+00 2.5858194780409800e+01
0.0000000000000000e+00 4.8301037599330101e+01
ITEM: ATOMS id type xs ys zs
1 1 0 0.121395 0
7 1 0.25 0.0650943 0.0533138
49 1 0.5 0.121395 0
55 1 0.75 0.0650943 0.0533138
2 1 3.36001e-17 0.315094 0.0533138
26 1 0 0.179996 0.0626995
28 1 0.25 0.236825 0.00919034
50 1 0.5 0.315094 0.0533138
74 1 0.5 0.179996 0.0626995
76 1 0.75 0.236825 0.00919034
3 1 0.25 0.371395 0
25 1 0 0.486825 0.00919034
29 1 0.25 0.429996 0.0626995
51 1 0.75 0.371395 0
73 1 0.5 0.486825 0.00919034
77 1 0.75 0.429996 0.0626995
97 1 0 0.621395 0
103 1 0.25 0.565094 0.0533138
145 1 0.5 0.621395 0
151 1 0.75 0.565094 0.0533138
98 1 3.56679e-17 0.815094 0.0533138
122 1 4.00817e-17 0.679996 0.0626995
124 1 0.25 0.736825 0.00919034
146 1 0.5 0.815094 0.0533138
170 1 0.5 0.679996 0.0626995
172 1 0.75 0.736825 0.00919034
99 1 0.25 0.871395 0
121 1 0 0.986825 0.00919034
125 1 0.25 0.929996 0.0626995
147 1 0.75 0.871395 0
169 1 0.5 0.986825 0.00919034
173 1 0.75 0.929996 0.0626995
4 1 0 0.00715404 0.107479
33 1 0.25 0.122177 0.117389
52 1 0.5 0.00715404 0.107479
81 1 0.75 0.122177 0.117389
5 1 1 0.199689 0.161975
8 1 0.25 0.257154 0.107479
53 1 0.5 0.199689 0.161975
56 1 0.75 0.257154 0.107479
9 1 0.25 0.449689 0.161975
27 1 0 0.372177 0.117389
57 1 0.75 0.449689 0.161975
75 1 0.5 0.372177 0.117389
100 1 1.04306e-17 0.507154 0.107479
129 1 0.25 0.622177 0.117389
148 1 0.5 0.507154 0.107479
177 1 0.75 0.622177 0.117389
101 1 0 0.699689 0.161975
104 1 0.25 0.757154 0.107479
149 1 0.5 0.699689 0.161975
152 1 0.75 0.757154 0.107479
105 1 0.25 0.949689 0.161975
123 1 1.74769e-17 0.872177 0.117389
153 1 0.75 0.949689 0.161975
171 1 0.5 0.872177 0.117389
13 1 0.25 0.142091 0.216702
30 1 3.41948e-17 0.0646243 0.171831
37 1 0.25 0.00705467 0.225956
61 1 0.75 0.142091 0.216702
78 1 0.5 0.0646243 0.171831
85 1 0.75 0.00705467 0.225956
31 1 4.88341e-17 0.257055 0.225956
34 1 0.25 0.314624 0.171831
79 1 0.5 0.257055 0.225956
82 1 0.75 0.314624 0.171831
6 1 0 0.392091 0.216702
54 1 0.5 0.392091 0.216702
109 1 0.25 0.642091 0.216702
126 1 0 0.564624 0.171831
133 1 0.25 0.507055 0.225956
157 1 0.75 0.642091 0.216702
174 1 0.5 0.564624 0.171831
181 1 0.75 0.507055 0.225956
127 1 4.16389e-17 0.757055 0.225956
130 1 0.25 0.814624 0.171831
175 1 0.5 0.757055 0.225956
178 1 0.75 0.814624 0.171831
102 1 7.3366e-17 0.892091 0.216702
150 1 0.5 0.892091 0.216702
10 1 0 0.0845159 0.270589
58 1 0.5 0.0845159 0.270589
38 1 0.25 0.199479 0.280393
86 1 0.75 0.199479 0.280393
14 1 0.25 0.334516 0.270589
32 1 0 0.449479 0.280393
62 1 0.75 0.334516 0.270589
80 1 0.5 0.449479 0.280393
106 1 0 0.584516 0.270589
154 1 0.5 0.584516 0.270589
134 1 0.25 0.699479 0.280393
182 1 0.75 0.699479 0.280393
110 1 0.25 0.834516 0.270589
128 1 1 0.949479 0.280393
158 1 0.75 0.834516 0.270589
176 1 0.5 0.949479 0.280393
17 1 0.283333 0.0602743 0.335298
65 1 0.783333 0.0602743 0.335298
43 1 0.283333 0.117662 0.398988
91 1 0.783333 0.117662 0.398988
108 1 0.0333333 0.00269825 0.389735
156 1 0.533333 0.00269825 0.389735
11 1 0.0333333 0.310274 0.335298
59 1 0.533333 0.310274 0.335298
35 1 0.0333333 0.175237 0.345102
83 1 0.533333 0.175237 0.345102
18 1 0.283333 0.252698 0.389735
66 1 0.783333 0.252698 0.389735
36 1 0.0333333 0.367662 0.398988
39 1 0.283333 0.425237 0.345102
84 1 0.533333 0.367662 0.398988
87 1 0.783333 0.425237 0.345102
113 1 0.283333 0.560274 0.335298
161 1 0.783333 0.560274 0.335298
12 1 0.0333333 0.502698 0.389735
60 1 0.533333 0.502698 0.389735
139 1 0.283333 0.617662 0.398988
187 1 0.783333 0.617662 0.398988
107 1 0.0333333 0.810274 0.335298
155 1 0.533333 0.810274 0.335298
131 1 0.0333333 0.675237 0.345102
179 1 0.533333 0.675237 0.345102
114 1 0.283333 0.752698 0.389735
162 1 0.783333 0.752698 0.389735
132 1 0.0333333 0.867662 0.398988
135 1 0.283333 0.925237 0.345102
180 1 0.533333 0.867662 0.398988
183 1 0.783333 0.925237 0.345102
24 1 0.283333 0.137576 0.498302
40 1 0.0333333 0.0600642 0.453716
72 1 0.783333 0.137576 0.498302
88 1 0.533333 0.0600642 0.453716
15 1 0.0333333 0.195129 0.44386
63 1 0.533333 0.195129 0.44386
44 1 0.283333 0.310064 0.453716
92 1 0.783333 0.310064 0.453716
16 1 0.0333333 0.387576 0.498302
19 1 0.283333 0.445129 0.44386
64 1 0.533333 0.387576 0.498302
67 1 0.783333 0.445129 0.44386
120 1 0.283333 0.637576 0.498302
136 1 0.0333333 0.560064 0.453716
168 1 0.783333 0.637576 0.498302
184 1 0.533333 0.560064 0.453716
111 1 0.0333333 0.695129 0.44386
159 1 0.533333 0.695129 0.44386
140 1 0.283333 0.810064 0.453716
188 1 0.783333 0.810064 0.453716
112 1 0.0333333 0.887576 0.498302
115 1 0.283333 0.945129 0.44386
160 1 0.533333 0.887576 0.498302
163 1 0.783333 0.945129 0.44386
20 1 0.0333333 0.0797573 0.552991
68 1 0.533333 0.0797573 0.552991
141 1 0.283333 0.00259906 0.508211
189 1 0.783333 0.00259906 0.508211
47 1 0.283333 0.194659 0.562377
95 1 0.783333 0.194659 0.562377
22 1 0.283333 0.329757 0.552991
41 1 0.0333333 0.252599 0.508211
70 1 0.783333 0.329757 0.552991
89 1 0.533333 0.252599 0.508211
42 1 0.0333333 0.444659 0.562377
90 1 0.533333 0.444659 0.562377
45 1 0.283333 0.502599 0.508211
93 1 0.783333 0.502599 0.508211
116 1 0.0333333 0.579757 0.552991
164 1 0.533333 0.579757 0.552991
143 1 0.283333 0.694659 0.562377
191 1 0.783333 0.694659 0.562377
118 1 0.283333 0.829757 0.552991
137 1 0.0333333 0.752599 0.508211
166 1 0.783333 0.829757 0.552991
185 1 0.533333 0.752599 0.508211
138 1 0.0333333 0.944659 0.562377
186 1 0.533333 0.944659 0.562377
46 1 0.0333333 0.138358 0.615691
94 1 0.533333 0.138358 0.615691
119 1 0.283333 0.0229283 0.6065
167 1 0.783333 0.0229283 0.6065
21 1 0.0333333 0.272928 0.6065
69 1 0.533333 0.272928 0.6065
48 1 0.283333 0.388358 0.615691
96 1 0.783333 0.388358 0.615691
23 1 0.283333 0.522928 0.6065
71 1 0.783333 0.522928 0.6065
142 1 0.0333333 0.638358 0.615691
190 1 0.533333 0.638358 0.615691
117 1 0.0333333 0.772928 0.6065
165 1 0.533333 0.772928 0.6065
144 1 0.283333 0.888358 0.615691
192 1 0.783333 0.888358 0.615691
