ITEM: TIMESTEP
47
ITEM: NUMBER OF ATOMS
192
ITEM: BOX BOUNDS pp pp pp
0.0000000000000000e+00 5.9011998176000002e+00
0.0000000000000000e+00 2.1324426539756200e+01
0.0000000000000000e+00 4.3042699813799999e+01
ITEM: ATOMS id type xs ys zs
1 1 0 0.121395 0
7 1 0.25 0.0685083 0.048686
26 1 1 0.183377 0.0575685
49 1 0.5 0.121395 0
55 1 0.75 0.0685083 0.048686
74 1 0.5 0.183377 0.0575685
2 1 0 0.318508 0.048686
3 1 0.25 0.371395 0
28 1 0.25 0.236825 0.00868461
50 1 0.5 0.318508 0.048686
51 1 0.75 0.371395 0
76 1 0.75 0.236825 0.00868461
25 1 0 0.486825 0.00868461
29 1 0.25 0.433377 0.0575685
73 1 0.5 0.486825 0.00868461
77 1 0.75 0.433377 0.0575685
103 1 0.25 0.568508 0.048686
151 1 0.75 0.568508 0.048686
97 1 0 0.621395 0
122 1 1 0.683377 0.0575685
124 1 0.25 0.736825 0.00868461
145 1 0.5 0.621395 0
170 1 0.5 0.683377 0.0575685
172 1 0.75 0.736825 0.00868461
98 1 1.50508e-16 0.818508 0.048686
99 1 0.25 0.871395 0
121 1 0 0.986825 0.00868461
125 1 0.25 0.933377 0.0575685
146 1 0.5 0.818508 0.048686
147 1 0.75 0.871395 0
169 1 0.5 0.986825 0.00868461
173 1 0.75 0.933377 0.0575685
4 1 0 0.00925805 0.102293
30 1 0 0.0667923 0.162739
33 1 0.25 0.125018 0.110787
52 1 0.5 0.00925805 0.102293
78 1 0.5 0.0667923 0.162739
81 1 0.75 0.125018 0.110787
5 1 0 0.201122 0.15422
53 1 0.5 0.201122 0.15422
8 1 0.25 0.259258 0.102293
27 1 0 0.375018 0.110787
34 1 0.25 0.316792 0.162739
56 1 0.75 0.259258 0.102293
75 1 0.5 0.375018 0.110787
82 1 0.75 0.316792 0.162739
9 1 0.25 0.451122 0.15422
57 1 0.75 0.451122 0.15422
100 1 1 0.509258 0.102293
126 1 0 0.566792 0.162739
148 1 0.5 0.509258 0.102293
174 1 0.5 0.566792 0.162739
101 1 0 0.701122 0.15422
104 1 0.25 0.759258 0.102293
129 1 0.25 0.625018 0.110787
149 1 0.5 0.701122 0.15422
152 1 0.75 0.759258 0.102293
177 1 0.75 0.625018 0.110787
105 1 0.25 0.951122 0.15422
123 1 2.18999e-17 0.875018 0.110787
130 1 0.25 0.816792 0.162739
153 1 0.75 0.951122 0.15422
171 1 0.5 0.875018 0.110787
178 1 0.75 0.816792 0.162739
10 1 1 0.0845017 0.257991
13 1 0.25 0.142759 0.20695
37 1 0.25 0.0084478 0.214859
58 1 0.5 0.0845017 0.257991
61 1 0.75 0.142759 0.20695
85 1 0.75 0.0084478 0.214859
38 1 0.25 0.200198 0.267443
86 1 0.75 0.200198 0.267443
6 1 1 0.392759 0.20695
14 1 0.25 0.334502 0.257991
31 1 2.09346e-16 0.258448 0.214859
54 1 0.5 0.392759 0.20695
62 1 0.75 0.334502 0.257991
79 1 0.5 0.258448 0.214859
32 1 0 0.450198 0.267443
80 1 0.5 0.450198 0.267443
106 1 1.50508e-16 0.584502 0.257991
133 1 0.25 0.508448 0.214859
154 1 0.5 0.584502 0.257991
181 1 0.75 0.508448 0.214859
109 1 0.25 0.642759 0.20695
127 1 1.46313e-17 0.758448 0.214859
134 1 0.25 0.700198 0.267443
157 1 0.75 0.642759 0.20695
175 1 0.5 0.758448 0.214859
182 1 0.75 0.700198 0.267443
102 1 0 0.892759 0.20695
110 1 0.25 0.834502 0.257991
128 1 1.50508e-16 0.950198 0.267443
150 1 0.5 0.892759 0.20695
158 1 0.75 0.834502 0.257991
176 1 0.5 0.950198 0.267443
17 1 0.283333 0.0595548 0.314367
35 1 0.0333333 0.175251 0.323819
65 1 0.783333 0.0595548 0.314367
83 1 0.533333 0.175251 0.323819
11 1 0.0333333 0.309555 0.314367
59 1 0.533333 0.309555 0.314367
39 1 0.283333 0.425251 0.323819
87 1 0.783333 0.425251 0.323819
113 1 0.283333 0.559555 0.314367
161 1 0.783333 0.559555 0.314367
131 1 0.0333333 0.675251 0.323819
179 1 0.533333 0.675251 0.323819
107 1 0.0333333 0.809555 0.314367
155 1 0.533333 0.809555 0.314367
135 1 0.283333 0.925251 0.323819
183 1 0.783333 0.925251 0.323819
15 1 0.0333333 0.192961 0.419071
40 1 0.0333333 0.0586314 0.42759
43 1 0.283333 0.116994 0.37486
63 1 0.533333 0.192961 0.419071
88 1 0.533333 0.0586314 0.42759
91 1 0.783333 0.116994 0.37486
108 1 0.0333333 0.00130514 0.366952
156 1 0.533333 0.00130514 0.366952
18 1 0.283333 0.251305 0.366952
36 1 0.0333333 0.366994 0.37486
44 1 0.283333 0.308631 0.42759
66 1 0.783333 0.251305 0.366952
84 1 0.533333 0.366994 0.37486
92 1 0.783333 0.308631 0.42759
12 1 0.0333333 0.501305 0.366952
19 1 0.283333 0.442961 0.419071
60 1 0.533333 0.501305 0.366952
67 1 0.783333 0.442961 0.419071
136 1 0.0333333 0.558631 0.42759
184 1 0.533333 0.558631 0.42759
139 1 0.283333 0.616994 0.37486
187 1 0.783333 0.616994 0.37486
111 1 0.0333333 0.692961 0.419071
114 1 0.283333 0.751305 0.366952
159 1 0.533333 0.692961 0.419071
162 1 0.783333 0.751305 0.366952
140 1 0.283333 0.808631 0.42759
188 1 0.783333 0.808631 0.42759
115 1 0.283333 0.942961 0.419071
132 1 0.0333333 0.866994 0.37486
163 1 0.783333 0.942961 0.419071
180 1 0.533333 0.866994 0.37486
20 1 0.0333333 0.0763766 0.524242
24 1 0.283333 0.134735 0.471023
47 1 0.283333 0.191245 0.533124
68 1 0.533333 0.0763766 0.524242
72 1 0.783333 0.134735 0.471023
95 1 0.783333 0.191245 0.533124
141 1 0.283333 0.000495062 0.479518
189 1 0.783333 0.000495062 0.479518
16 1 0.0333333 0.384735 0.471023
22 1 0.283333 0.326377 0.524242
41 1 0.0333333 0.250495 0.479518
64 1 0.533333 0.384735 0.471023
70 1 0.783333 0.326377 0.524242
89 1 0.533333 0.250495 0.479518
42 1 0.0333333 0.441245 0.533124
45 1 0.283333 0.500495 0.479518
90 1 0.533333 0.441245 0.533124
93 1 0.783333 0.500495 0.479518
116 1 0.0333333 0.576377 0.524242
164 1 0.533333 0.576377 0.524242
120 1 0.283333 0.634735 0.471023
137 1 0.0333333 0.750495 0.479518
143 1 0.283333 0.691245 0.533124
168 1 0.783333 0.634735 0.471023
185 1 0.533333 0.750495 0.479518
191 1 0.783333 0.691245 0.533124
118 1 0.283333 0.826377 0.524242
166 1 0.783333 0.826377 0.524242
112 1 0.0333333 0.884735 0.471023
138 1 0.0333333 0.941245 0.533124
160 1 0.533333 0.884735 0.471023
186 1 0.533333 0.941245 0.533124
46 1 0.0333333 0.138358 0.58181
94 1 0.533333 0.138358 0.58181
119 1 0.283333 0.0229283 0.573126
167 1 0.783333 0.0229283 0.573126
21 1 0.0333333 0.272928 0.573126
48 1 0.283333 0.388358 0.58181
69 1 0.533333 0.272928 0.573126
96 1 0.783333 0.388358 0.58181
23 1 0.283333 0.522928 0.573126
71 1 0.783333 0.522928 0.573126
117 1 0.0333333 0.772928 0.573126
142 1 0.0333333 0.638358 0.58181
165 1 0.533333 0.772928 0.573126
190 1 0.533333 0.638358 0.58181
144 1 0.283333 0.888358 0.58181
192 1 0.783333 0.888358 0.58181
