ITEM: TIMESTEP
178
ITEM: NUMBER OF ATOMS
192
ITEM: BOX BOUNDS pp pp pp
0.0000000000000000e+00 5.9011998176000002e+00
0.0000000000000000e+00 2.1324426539756200e+01
0.0000000000000000e+00 4.3042699813799999e+01
ITEM: ATOMS id type xs ys zs
1 1 0 0.121395 0
7 1 0.25 0.0685083 0.0483321
26 1 1 0.183377 0.0572445
49 1 0.5 0.121395 0
55 1 0.75 0.0685083 0.0483321
74 1 0.5 0.183377 0.0572445
2 1 0 0.318508 0.0483321
3 1 0.25 0.371395 0
28 1 0.25 0.236825 0.00868461
50 1 0.5 0.318508 0.0483321
51 1 0.75 0.371395 0
76 1 0.75 0.236825 0.00868461
25 1 0 0.486825 0.00868461
29 1 0.25 0.433377 0.0572445
73 1 0.5 0.486825 0.00868461
77 1 0.75 0.433377 0.0572445
103 1 0.25 0.568508 0.0483321
151 1 0.75 0.568508 0.0483321
97 1 0 0.621395 0
122 1 1 0.683377 0.0572445
124 1 0.25 0.736825 0.00868461
145 1 0.5 0.621395 0
170 1 0.5 0.683377 0.0572445
172 1 0.75 0.736825 0.00868461
98 1 1.50508e-16 0.818508 0.0483321
99 1 0.25 0.871395 0
121 1 0 0.986825 0.00868461
125 1 0.25 0.933377 0.0572445
146 1 0.5 0.818508 0.0483321
147 1 0.75 0.871395 0
169 1 0.5 0.986825 0.00868461
173 1 0.75 0.933377 0.0572445
4 1 0 0.00925805 0.101535
30 1 0 0.0667923 0.161511
33 1 0.25 0.125018 0.110088
52 1 0.5 0.00925805 0.101535
78 1 0.5 0.0667923 0.161511
81 1 0.75 0.125018 0.110088
5 1 0 0.201122 0.153133
53 1 0.5 0.201122 0.153133
8 1 0.25 0.259258 0.101535
27 1 0 0.375018 0.110088
34 1 0.25 0.316792 0.161511
56 1 0.75 0.259258 0.101535
75 1 0.5 0.375018 0.110088
82 1 0.75 0.316792 0.161511
9 1 0.25 0.451122 0.153133
57 1 0.75 0.451122 0.153133
100 1 1 0.509258 0.101535
126 1 0 0.566792 0.161511
148 1 0.5 0.509258 0.101535
174 1 0.5 0.566792 0.161511
101 1 0 0.701122 0.153133
104 1 0.25 0.759258 0.101535
129 1 0.25 0.625018 0.110088
149 1 0.5 0.701122 0.153133
152 1 0.75 0.759258 0.101535
177 1 0.75 0.625018 0.110088
105 1 0.25 0.951122 0.153133
123 1 2.18999e-17 0.875018 0.110088
130 1 0.25 0.816792 0.161511
153 1 0.75 0.951122 0.153133
171 1 0.5 0.875018 0.110088
178 1 0.75 0.816792 0.161511
10 1 1 0.0845017 0.258615
13 1 0.25 0.142759 0.205987
37 1 0.25 0.0084478 0.213653
58 1 0.5 0.0845017 0.258615
61 1 0.75 0.142759 0.205987
85 1 0.75 0.0084478 0.213653
38 1 0.25 0.200198 0.263222
86 1 0.75 0.200198 0.263222
6 1 1 0.392759 0.205987
14 1 0.25 0.334502 0.258615
31 1 2.09346e-16 0.258448 0.213653
54 1 0.5 0.392759 0.205987
62 1 0.75 0.334502 0.258615
79 1 0.5 0.258448 0.213653
32 1 0 0.450198 0.263222
80 1 0.5 0.450198 0.263222
106 1 1.50508e-16 0.584502 0.258615
133 1 0.25 0.508448 0.213653
154 1 0.5 0.584502 0.258615
181 1 0.75 0.508448 0.213653
109 1 0.25 0.642759 0.205987
127 1 1.46313e-17 0.758448 0.213653
134 1 0.25 0.700198 0.263222
157 1 0.75 0.642759 0.205987
175 1 0.5 0.758448 0.213653
182 1 0.75 0.700198 0.263222
102 1 0 0.892759 0.205987
110 1 0.25 0.834502 0.258615
128 1 1.50508e-16 0.950198 0.263222
150 1 0.5 0.892759 0.205987
158 1 0.75 0.834502 0.258615
176 1 0.5 0.950198 0.263222
135 1 0.433333 0.0752512 0.323195
183 1 0.933333 0.0752512 0.323195
17 1 0.433333 0.209555 0.318588
65 1 0.933333 0.209555 0.318588
35 1 0.183333 0.325251 0.323195
83 1 0.683333 0.325251 0.323195
11 1 0.183333 0.459555 0.318588
59 1 0.683333 0.459555 0.318588
39 1 0.433333 0.575251 0.323195
87 1 0.933333 0.575251 0.323195
113 1 0.433333 0.709555 0.318588
161 1 0.933333 0.709555 0.318588
131 1 0.183333 0.825251 0.323195
179 1 0.683333 0.825251 0.323195
107 1 0.183333 0.959555 0.318588
155 1 0.683333 0.959555 0.318588
108 1 0.183333 0.151305 0.368157
156 1 0.683333 0.151305 0.368157
115 1 0.433333 0.0929607 0.420299
163 1 0.933333 0.0929607 0.420299
132 1 0.183333 0.0169938 0.375823
180 1 0.683333 0.0169938 0.375823
40 1 0.183333 0.208631 0.428677
88 1 0.683333 0.208631 0.428677
43 1 0.433333 0.266994 0.375823
91 1 0.933333 0.266994 0.375823
15 1 0.183333 0.342961 0.420299
63 1 0.683333 0.342961 0.420299
18 1 0.433333 0.401305 0.368157
66 1 0.933333 0.401305 0.368157
44 1 0.433333 0.458631 0.428677
92 1 0.933333 0.458631 0.428677
36 1 0.183333 0.516994 0.375823
84 1 0.683333 0.516994 0.375823
19 1 0.433333 0.592961 0.420299
67 1 0.933333 0.592961 0.420299
12 1 0.183333 0.651305 0.368157
60 1 0.683333 0.651305 0.368157
136 1 0.183333 0.708631 0.428677
184 1 0.683333 0.708631 0.428677
139 1 0.433333 0.766994 0.375823
187 1 0.933333 0.766994 0.375823
111 1 0.183333 0.842961 0.420299
159 1 0.683333 0.842961 0.420299
114 1 0.433333 0.901305 0.368157
162 1 0.933333 0.901305 0.368157
140 1 0.433333 0.958631 0.428677
188 1 0.933333 0.958631 0.428677
141 1 0.433333 0.150495 0.480276
189 1 0.933333 0.150495 0.480276
138 1 0.183333 0.0912449 0.533478
186 1 0.683333 0.0912449 0.533478
112 1 0.183333 0.0347347 0.471722
160 1 0.683333 0.0347347 0.471722
20 1 0.183333 0.226377 0.524566
68 1 0.683333 0.226377 0.524566
24 1 0.433333 0.284735 0.471722
72 1 0.933333 0.284735 0.471722
47 1 0.433333 0.341245 0.533478
95 1 0.933333 0.341245 0.533478
41 1 0.183333 0.400495 0.480276
89 1 0.683333 0.400495 0.480276
22 1 0.433333 0.476377 0.524566
70 1 0.933333 0.476377 0.524566
16 1 0.183333 0.534735 0.471722
64 1 0.683333 0.534735 0.471722
42 1 0.183333 0.591245 0.533478
90 1 0.683333 0.591245 0.533478
45 1 0.433333 0.650495 0.480276
93 1 0.933333 0.650495 0.480276
116 1 0.183333 0.726377 0.524566
164 1 0.683333 0.726377 0.524566
120 1 0.433333 0.784735 0.471722
168 1 0.933333 0.784735 0.471722
143 1 0.433333 0.841245 0.533478
191 1 0.933333 0.841245 0.533478
137 1 0.183333 0.900495 0.480276
185 1 0.683333 0.900495 0.480276
118 1 0.433333 0.976377 0.524566
166 1 0.933333 0.976377 0.524566
119 1 0.433333 0.172928 0.573126
167 1 0.933333 0.172928 0.573126
144 1 0.433333 0.0383583 0.58181
192 1 0.933333 0.0383583 0.58181
46 1 0.183333 0.288358 0.58181
94 1 0.683333 0.288358 0.58181
21 1 0.183333 0.422928 0.573126
69 1 0.683333 0.422928 0.573126
48 1 0.433333 0.538358 0.58181
96 1 0.933333 0.538358 0.58181
23 1 0.433333 0.672928 0.573126
71 1 0.933333 0.672928 0.573126
142 1 0.183333 0.788358 0.58181
190 1 0.683333 0.788358 0.58181
117 1 0.183333 0.922928 0.573126
165 1 0.683333 0.922928 0.573126
