ITEM: TIMESTEP
281
ITEM: NUMBER OF ATOMS
192
ITEM: BOX BOUNDS pp pp pp
0.0000000000000000e+00 7.1176886540000002e+00
0.0000000000000000e+00 2.5858194780409800e+01
0.0000000000000000e+00 4.8301037599330101e+01
ITEM: ATOMS id type xs ys zs
1 1 0 0.121395 0
7 1 0.25 0.0650943 0.044276
49 1 0.5 0.121395 0
55 1 0.75 0.0650943 0.044276
2 1 3.36001e-17 0.315094 0.044276
26 1 0 0.179996 0.0544328
28 1 0.25 0.236825 0.00919034
50 1 0.5 0.315094 0.044276
74 1 0.5 0.179996 0.0544328
76 1 0.75 0.236825 0.00919034
3 1 0.25 0.371395 0
25 1 0 0.486825 0.00919034
29 1 0.25 0.429996 0.0544328
51 1 0.75 0.371395 0
73 1 0.5 0.486825 0.00919034
77 1 0.75 0.429996 0.0544328
97 1 0 0.621395 0
103 1 0.25 0.565094 0.044276
145 1 0.5 0.621395 0
151 1 0.75 0.565094 0.044276
98 1 3.56679e-17 0.815094 0.044276
122 1 4.00817e-17 0.679996 0.0544328
124 1 0.25 0.736825 0.00919034
146 1 0.5 0.815094 0.044276
170 1 0.5 0.679996 0.0544328
172 1 0.75 0.736825 0.00919034
99 1 0.25 0.871395 0
121 1 0 0.986825 0.00919034
125 1 0.25 0.929996 0.0544328
147 1 0.75 0.871395 0
169 1 0.5 0.986825 0.00919034
173 1 0.75 0.929996 0.0544328
4 1 0 0.00715404 0.089984
33 1 0.25 0.122177 0.101098
52 1 0.5 0.00715404 0.089984
81 1 0.75 0.122177 0.101098
30 1 3.41948e-17 0.0646243 0.147324
78 1 0.5 0.0646243 0.147324
5 1 1 0.199689 0.136249
8 1 0.25 0.257154 0.089984
53 1 0.5 0.199689 0.136249
56 1 0.75 0.257154 0.089984
34 1 0.25 0.314624 0.147324
82 1 0.75 0.314624 0.147324
9 1 0.25 0.449689 0.136249
27 1 0 0.372177 0.101098
57 1 0.75 0.449689 0.136249
75 1 0.5 0.372177 0.101098
100 1 1.04306e-17 0.507154 0.089984
129 1 0.25 0.622177 0.101098
148 1 0.5 0.507154 0.089984
177 1 0.75 0.622177 0.101098
126 1 0 0.564624 0.147324
174 1 0.5 0.564624 0.147324
101 1 0 0.699689 0.136249
104 1 0.25 0.757154 0.089984
149 1 0.5 0.699689 0.136249
152 1 0.75 0.757154 0.089984
130 1 0.25 0.814624 0.147324
178 1 0.75 0.814624 0.147324
105 1 0.25 0.949689 0.136249
123 1 1.74769e-17 0.872177 0.101098
153 1 0.75 0.949689 0.136249
171 1 0.5 0.872177 0.101098
13 1 0.25 0.142091 0.182843
37 1 0.25 0.00705467 0.193112
61 1 0.75 0.142091 0.182843
85 1 0.75 0.00705467 0.193112
10 1 0 0.0845159 0.228366
58 1 0.5 0.0845159 0.228366
31 1 4.88341e-17 0.257055 0.193112
79 1 0.5 0.257055 0.193112
38 1 0.25 0.199479 0.23723
86 1 0.75 0.199479 0.23723
6 1 0 0.392091 0.182843
54 1 0.5 0.392091 0.182843
14 1 0.25 0.334516 0.228366
32 1 0 0.449479 0.23723
62 1 0.75 0.334516 0.228366
80 1 0.5 0.449479 0.23723
109 1 0.25 0.642091 0.182843
133 1 0.25 0.507055 0.193112
157 1 0.75 0.642091 0.182843
181 1 0.75 0.507055 0.193112
106 1 0 0.584516 0.228366
154 1 0.5 0.584516 0.228366
127 1 4.16389e-17 0.757055 0.193112
175 1 0.5 0.757055 0.193112
134 1 0.25 0.699479 0.23723
182 1 0.75 0.699479 0.23723
102 1 7.3366e-17 0.892091 0.182843
150 1 0.5 0.892091 0.182843
110 1 0.25 0.834516 0.228366
128 1 1 0.949479 0.23723
158 1 0.75 0.834516 0.228366
176 1 0.5 0.949479 0.23723
135 1 0.491667 0.13357 0.387325
183 1 0.991667 0.13357 0.387325
107 1 0.241667 0.0186077 0.378461
155 1 0.741667 0.0186077 0.378461
17 1 0.491667 0.268608 0.378461
65 1 0.991667 0.268608 0.378461
35 1 0.241667 0.38357 0.387325
83 1 0.741667 0.38357 0.387325
11 1 0.241667 0.518608 0.378461
59 1 0.741667 0.518608 0.378461
39 1 0.491667 0.63357 0.387325
87 1 0.991667 0.63357 0.387325
113 1 0.491667 0.768608 0.378461
161 1 0.991667 0.768608 0.378461
131 1 0.241667 0.88357 0.387325
179 1 0.741667 0.88357 0.387325
115 1 0.491667 0.153462 0.468367
163 1 0.991667 0.153462 0.468367
132 1 0.241667 0.0759952 0.432847
180 1 0.741667 0.0759952 0.432847
140 1 0.491667 0.0183975 0.479442
188 1 0.991667 0.0183975 0.479442
108 1 0.241667 0.211032 0.422579
156 1 0.741667 0.211032 0.422579
40 1 0.241667 0.268398 0.479442
88 1 0.741667 0.268398 0.479442
43 1 0.491667 0.325995 0.432847
91 1 0.991667 0.325995 0.432847
15 1 0.241667 0.403462 0.468367
63 1 0.741667 0.403462 0.468367
18 1 0.491667 0.461032 0.422579
66 1 0.991667 0.461032 0.422579
44 1 0.491667 0.518398 0.479442
92 1 0.991667 0.518398 0.479442
36 1 0.241667 0.575995 0.432847
84 1 0.741667 0.575995 0.432847
19 1 0.491667 0.653462 0.468367
67 1 0.991667 0.653462 0.468367
12 1 0.241667 0.711032 0.422579
60 1 0.741667 0.711032 0.422579
136 1 0.241667 0.768398 0.479442
184 1 0.741667 0.768398 0.479442
139 1 0.491667 0.825995 0.432847
187 1 0.991667 0.825995 0.432847
111 1 0.241667 0.903462 0.468367
159 1 0.741667 0.903462 0.468367
114 1 0.491667 0.961032 0.422579
162 1 0.991667 0.961032 0.422579
138 1 0.241667 0.152992 0.571415
186 1 0.741667 0.152992 0.571415
112 1 0.241667 0.0959091 0.514592
160 1 0.741667 0.0959091 0.514592
118 1 0.491667 0.0380906 0.561258
166 1 0.991667 0.0380906 0.561258
141 1 0.491667 0.210932 0.525707
189 1 0.991667 0.210932 0.525707
20 1 0.241667 0.288091 0.561258
68 1 0.741667 0.288091 0.561258
24 1 0.491667 0.345909 0.514592
72 1 0.991667 0.345909 0.514592
47 1 0.491667 0.402992 0.571415
95 1 0.991667 0.402992 0.571415
41 1 0.241667 0.460932 0.525707
89 1 0.741667 0.460932 0.525707
22 1 0.491667 0.538091 0.561258
70 1 0.991667 0.538091 0.561258
16 1 0.241667 0.595909 0.514592
64 1 0.741667 0.595909 0.514592
42 1 0.241667 0.652992 0.571415
90 1 0.741667 0.652992 0.571415
45 1 0.491667 0.710932 0.525707
93 1 0.991667 0.710932 0.525707
116 1 0.241667 0.788091 0.561258
164 1 0.741667 0.788091 0.561258
120 1 0.491667 0.845909 0.514592
168 1 0.991667 0.845909 0.514592
143 1 0.491667 0.902992 0.571415
191 1 0.991667 0.902992 0.571415
137 1 0.241667 0.960932 0.525707
185 1 0.741667 0.960932 0.525707
144 1 0.491667 0.0966917 0.615691
192 1 0.991667 0.0966917 0.615691
119 1 0.491667 0.231262 0.6065
167 1 0.991667 0.231262 0.6065
46 1 0.241667 0.346692 0.615691
94 1 0.741667 0.346692 0.615691
21 1 0.241667 0.481262 0.6065
69 1 0.741667 0.481262 0.6065
48 1 0.491667 0.596692 0.615691
96 1 0.991667 0.596692 0.615691
23 1 0.491667 0.731262 0.6065
71 1 0.991667 0.731262 0.6065
142 1 0.241667 0.846692 0.615691
190 1 0.741667 0.846692 0.615691
117 1 0.241667 0.981262 0.6065
165 1 0.741667 0.981262 0.6065
