ITEM: TIMESTEP
157
ITEM: NUMBER OF ATOMS
192
ITEM: BOX BOUNDS pp pp pp
0.0000000000000000e+00 7.1176886540000002e+00
0.0000000000000000e+00 2.5858194780409800e+01
0.0000000000000000e+00 4.8301037599330101e+01
ITEM: ATOMS id type xs ys zs
1 1 0 0.121395 0
7 1 0.25 0.0650943 0.0443142
49 1 0.5 0.121395 0
55 1 0.75 0.0650943 0.0443142
2 1 3.36001e-17 0.315094 0.0443142
26 1 0 0.179996 0.054455
28 1 0.25 0.236825 0.00919034
50 1 0.5 0.315094 0.0443142
74 1 0.5 0.179996 0.054455
76 1 0.75 0.236825 0.00919034
3 1 0.25 0.371395 0
25 1 0 0.486825 0.00919034
29 1 0.25 0.429996 0.054455
51 1 0.75 0.371395 0
73 1 0.5 0.486825 0.00919034
77 1 0.75 0.429996 0.054455
97 1 0 0.621395 0
103 1 0.25 0.565094 0.0443142
145 1 0.5 0.621395 0
151 1 0.75 0.565094 0.0443142
98 1 3.56679e-17 0.815094 0.0443142
122 1 4.00817e-17 0.679996 0.054455
124 1 0.25 0.736825 0.00919034
146 1 0.5 0.815094 0.0443142
170 1 0.5 0.679996 0.054455
172 1 0.75 0.736825 0.00919034
99 1 0.25 0.871395 0
121 1 0 0.986825 0.00919034
125 1 0.25 0.929996 0.054455
147 1 0.75 0.871395 0
169 1 0.5 0.986825 0.00919034
173 1 0.75 0.929996 0.054455
4 1 0 0.00715404 0.0900841
33 1 0.25 0.122177 0.101177
52 1 0.5 0.00715404 0.0900841
81 1 0.75 0.122177 0.101177
30 1 3.41948e-17 0.0646243 0.147464
78 1 0.5 0.0646243 0.147464
5 1 1 0.199689 0.136407
8 1 0.25 0.257154 0.0900841
53 1 0.5 0.199689 0.136407
56 1 0.75 0.257154 0.0900841
34 1 0.25 0.314624 0.147464
82 1 0.75 0.314624 0.147464
9 1 0.25 0.449689 0.136407
27 1 0 0.372177 0.101177
57 1 0.75 0.449689 0.136407
75 1 0.5 0.372177 0.101177
100 1 1.04306e-17 0.507154 0.0900841
129 1 0.25 0.622177 0.101177
148 1 0.5 0.507154 0.0900841
177 1 0.75 0.622177 0.101177
126 1 0 0.564624 0.147464
174 1 0.5 0.564624 0.147464
101 1 0 0.699689 0.136407
104 1 0.25 0.757154 0.0900841
149 1 0.5 0.699689 0.136407
152 1 0.75 0.757154 0.0900841
130 1 0.25 0.814624 0.147464
178 1 0.75 0.814624 0.147464
105 1 0.25 0.949689 0.136407
123 1 1.74769e-17 0.872177 0.101177
153 1 0.75 0.949689 0.136407
171 1 0.5 0.872177 0.101177
13 1 0.25 0.142091 0.18306
37 1 0.25 0.00705467 0.193312
61 1 0.75 0.142091 0.18306
85 1 0.75 0.00705467 0.193312
10 1 0 0.0845159 0.228596
58 1 0.5 0.0845159 0.228596
31 1 4.88341e-17 0.257055 0.193312
79 1 0.5 0.257055 0.193312
38 1 0.25 0.199479 0.237475
86 1 0.75 0.199479 0.237475
6 1 0 0.392091 0.18306
54 1 0.5 0.392091 0.18306
14 1 0.25 0.334516 0.228596
32 1 0 0.449479 0.237475
62 1 0.75 0.334516 0.228596
80 1 0.5 0.449479 0.237475
109 1 0.25 0.642091 0.18306
133 1 0.25 0.507055 0.193312
157 1 0.75 0.642091 0.18306
181 1 0.75 0.507055 0.193312
106 1 0 0.584516 0.228596
154 1 0.5 0.584516 0.228596
127 1 4.16389e-17 0.757055 0.193312
175 1 0.5 0.757055 0.193312
134 1 0.25 0.699479 0.237475
182 1 0.75 0.699479 0.237475
102 1 7.3366e-17 0.892091 0.18306
150 1 0.5 0.892091 0.18306
110 1 0.25 0.834516 0.228596
128 1 1 0.949479 0.237475
158 1 0.75 0.834516 0.228596
176 1 0.5 0.949479 0.237475
17 1 0.366667 0.143608 0.378215
65 1 0.866667 0.143608 0.378215
135 1 0.366667 0.00857035 0.387094
183 1 0.866667 0.00857035 0.387094
35 1 0.116667 0.25857 0.387094
83 1 0.616667 0.25857 0.387094
11 1 0.116667 0.393608 0.378215
59 1 0.616667 0.393608 0.378215
39 1 0.366667 0.50857 0.387094
87 1 0.866667 0.50857 0.387094
113 1 0.366667 0.643608 0.378215
161 1 0.866667 0.643608 0.378215
131 1 0.116667 0.75857 0.387094
179 1 0.616667 0.75857 0.387094
107 1 0.116667 0.893608 0.378215
155 1 0.616667 0.893608 0.378215
108 1 0.116667 0.0860316 0.422378
156 1 0.616667 0.0860316 0.422378
40 1 0.116667 0.143398 0.479284
88 1 0.616667 0.143398 0.479284
115 1 0.366667 0.028462 0.468226
163 1 0.866667 0.028462 0.468226
43 1 0.366667 0.200995 0.43263
91 1 0.866667 0.200995 0.43263
15 1 0.116667 0.278462 0.468226
63 1 0.616667 0.278462 0.468226
18 1 0.366667 0.336032 0.422378
66 1 0.866667 0.336032 0.422378
44 1 0.366667 0.393398 0.479284
92 1 0.866667 0.393398 0.479284
36 1 0.116667 0.450995 0.43263
84 1 0.616667 0.450995 0.43263
19 1 0.366667 0.528462 0.468226
67 1 0.866667 0.528462 0.468226
12 1 0.116667 0.586032 0.422378
60 1 0.616667 0.586032 0.422378
136 1 0.116667 0.643398 0.479284
184 1 0.616667 0.643398 0.479284
139 1 0.366667 0.700995 0.43263
187 1 0.866667 0.700995 0.43263
111 1 0.116667 0.778462 0.468226
159 1 0.616667 0.778462 0.468226
114 1 0.366667 0.836032 0.422378
162 1 0.866667 0.836032 0.422378
140 1 0.366667 0.893398 0.479284
188 1 0.866667 0.893398 0.479284
132 1 0.116667 0.950995 0.43263
180 1 0.616667 0.950995 0.43263
20 1 0.116667 0.163091 0.561236
68 1 0.616667 0.163091 0.561236
141 1 0.366667 0.0859324 0.525606
189 1 0.866667 0.0859324 0.525606
138 1 0.116667 0.0279922 0.571376
186 1 0.616667 0.0279922 0.571376
24 1 0.366667 0.220909 0.514513
72 1 0.866667 0.220909 0.514513
47 1 0.366667 0.277992 0.571376
95 1 0.866667 0.277992 0.571376
41 1 0.116667 0.335932 0.525606
89 1 0.616667 0.335932 0.525606
16 1 0.116667 0.470909 0.514513
64 1 0.616667 0.470909 0.514513
22 1 0.366667 0.413091 0.561236
70 1 0.866667 0.413091 0.561236
42 1 0.116667 0.527992 0.571376
90 1 0.616667 0.527992 0.571376
45 1 0.366667 0.585932 0.525606
93 1 0.866667 0.585932 0.525606
116 1 0.116667 0.663091 0.561236
164 1 0.616667 0.663091 0.561236
120 1 0.366667 0.720909 0.514513
168 1 0.866667 0.720909 0.514513
143 1 0.366667 0.777992 0.571376
191 1 0.866667 0.777992 0.571376
137 1 0.116667 0.835932 0.525606
185 1 0.616667 0.835932 0.525606
112 1 0.116667 0.970909 0.514513
160 1 0.616667 0.970909 0.514513
118 1 0.366667 0.913091 0.561236
166 1 0.866667 0.913091 0.561236
119 1 0.366667 0.106262 0.6065
167 1 0.866667 0.106262 0.6065
46 1 0.116667 0.221692 0.615691
94 1 0.616667 0.221692 0.615691
21 1 0.116667 0.356262 0.6065
69 1 0.616667 0.356262 0.6065
48 1 0.366667 0.471692 0.615691
96 1 0.866667 0.471692 0.615691
23 1 0.366667 0.606262 0.6065
71 1 0.866667 0.606262 0.6065
142 1 0.116667 0.721692 0.615691
190 1 0.616667 0.721692 0.615691
117 1 0.116667 0.856262 0.6065
165 1 0.616667 0.856262 0.6065
144 1 0.366667 0.971692 0.615691
192 1 0.866667 0.971692 0.615691
