ITEM: TIMESTEP
148
ITEM: NUMBER OF ATOMS
192
ITEM: BOX BOUNDS pp pp pp
0.0000000000000000e+00 7.1176886540000002e+00
0.0000000000000000e+00 2.5858194780409800e+01
0.0000000000000000e+00 4.8301037599330101e+01
ITEM: ATOMS id type xs ys zs
1 1 0 0.121395 0
7 1 0.25 0.0650943 0.0442989
49 1 0.5 0.121395 0
55 1 0.75 0.0650943 0.0442989
2 1 3.36001e-17 0.315094 0.0442989
26 1 0 0.179996 0.0544459
28 1 0.25 0.236825 0.00919034
50 1 0.5 0.315094 0.0442989
74 1 0.5 0.179996 0.0544459
76 1 0.75 0.236825 0.00919034
3 1 0.25 0.371395 0
25 1 0 0.486825 0.00919034
29 1 0.25 0.429996 0.0544459
51 1 0.75 0.371395 0
73 1 0.5 0.486825 0.00919034
77 1 0.75 0.429996 0.0544459
97 1 0 0.621395 0
103 1 0.25 0.565094 0.0442989
145 1 0.5 0.621395 0
151 1 0.75 0.565094 0.0442989
98 1 3.56679e-17 0.815094 0.0442989
122 1 4.00817e-17 0.679996 0.0544459
124 1 0.25 0.736825 0.00919034
146 1 0.5 0.815094 0.0442989
170 1 0.5 0.679996 0.0544459
172 1 0.75 0.736825 0.00919034
99 1 0.25 0.871395 0
121 1 0 0.986825 0.00919034
125 1 0.25 0.929996 0.0544459
147 1 0.75 0.871395 0
169 1 0.5 0.986825 0.00919034
173 1 0.75 0.929996 0.0544459
4 1 0 0.00715404 0.0900443
33 1 0.25 0.122177 0.101146
52 1 0.5 0.00715404 0.0900443
81 1 0.75 0.122177 0.101146
30 1 3.41948e-17 0.0646243 0.147409
78 1 0.5 0.0646243 0.147409
5 1 1 0.199689 0.136345
8 1 0.25 0.257154 0.0900443
53 1 0.5 0.199689 0.136345
56 1 0.75 0.257154 0.0900443
34 1 0.25 0.314624 0.147409
82 1 0.75 0.314624 0.147409
9 1 0.25 0.449689 0.136345
27 1 0 0.372177 0.101146
57 1 0.75 0.449689 0.136345
75 1 0.5 0.372177 0.101146
100 1 1.04306e-17 0.507154 0.0900443
129 1 0.25 0.622177 0.101146
148 1 0.5 0.507154 0.0900443
177 1 0.75 0.622177 0.101146
126 1 0 0.564624 0.147409
174 1 0.5 0.564624 0.147409
101 1 0 0.699689 0.136345
104 1 0.25 0.757154 0.0900443
149 1 0.5 0.699689 0.136345
152 1 0.75 0.757154 0.0900443
130 1 0.25 0.814624 0.147409
178 1 0.75 0.814624 0.147409
105 1 0.25 0.949689 0.136345
123 1 1.74769e-17 0.872177 0.101146
153 1 0.75 0.949689 0.136345
171 1 0.5 0.872177 0.101146
13 1 0.25 0.142091 0.182976
37 1 0.25 0.00705467 0.193235
61 1 0.75 0.142091 0.182976
85 1 0.75 0.00705467 0.193235
10 1 0 0.0845159 0.228507
58 1 0.5 0.0845159 0.228507
31 1 4.88341e-17 0.257055 0.193235
79 1 0.5 0.257055 0.193235
38 1 0.25 0.199479 0.237382
86 1 0.75 0.199479 0.237382
6 1 0 0.392091 0.182976
54 1 0.5 0.392091 0.182976
14 1 0.25 0.334516 0.228507
32 1 0 0.449479 0.237382
62 1 0.75 0.334516 0.228507
80 1 0.5 0.449479 0.237382
109 1 0.25 0.642091 0.182976
133 1 0.25 0.507055 0.193235
157 1 0.75 0.642091 0.182976
181 1 0.75 0.507055 0.193235
106 1 0 0.584516 0.228507
154 1 0.5 0.584516 0.228507
127 1 4.16389e-17 0.757055 0.193235
175 1 0.5 0.757055 0.193235
134 1 0.25 0.699479 0.237382
182 1 0.75 0.699479 0.237382
102 1 7.3366e-17 0.892091 0.182976
150 1 0.5 0.892091 0.182976
110 1 0.25 0.834516 0.228507
128 1 1 0.949479 0.237382
158 1 0.75 0.834516 0.228507
176 1 0.5 0.949479 0.237382
17 1 0.358333 0.135274 0.378309
65 1 0.858333 0.135274 0.378309
135 1 0.358333 0.00023702 0.387184
183 1 0.858333 0.00023702 0.387184
35 1 0.108333 0.250237 0.387184
83 1 0.608333 0.250237 0.387184
11 1 0.108333 0.385274 0.378309
59 1 0.608333 0.385274 0.378309
39 1 0.358333 0.500237 0.387184
87 1 0.858333 0.500237 0.387184
113 1 0.358333 0.635274 0.378309
161 1 0.858333 0.635274 0.378309
131 1 0.108333 0.750237 0.387184
179 1 0.608333 0.750237 0.387184
107 1 0.108333 0.885274 0.378309
155 1 0.608333 0.885274 0.378309
108 1 0.108333 0.0776983 0.422456
156 1 0.608333 0.0776983 0.422456
40 1 0.108333 0.135064 0.479345
88 1 0.608333 0.135064 0.479345
115 1 0.358333 0.0201286 0.468281
163 1 0.858333 0.0201286 0.468281
43 1 0.358333 0.192662 0.432714
91 1 0.858333 0.192662 0.432714
18 1 0.358333 0.327698 0.422456
66 1 0.858333 0.327698 0.422456
15 1 0.108333 0.270129 0.468281
63 1 0.608333 0.270129 0.468281
44 1 0.358333 0.385064 0.479345
92 1 0.858333 0.385064 0.479345
36 1 0.108333 0.442662 0.432714
84 1 0.608333 0.442662 0.432714
19 1 0.358333 0.520129 0.468281
67 1 0.858333 0.520129 0.468281
12 1 0.108333 0.577698 0.422456
60 1 0.608333 0.577698 0.422456
136 1 0.108333 0.635064 0.479345
184 1 0.608333 0.635064 0.479345
139 1 0.358333 0.692662 0.432714
187 1 0.858333 0.692662 0.432714
114 1 0.358333 0.827698 0.422456
162 1 0.858333 0.827698 0.422456
111 1 0.108333 0.770129 0.468281
159 1 0.608333 0.770129 0.468281
140 1 0.358333 0.885064 0.479345
188 1 0.858333 0.885064 0.479345
132 1 0.108333 0.942662 0.432714
180 1 0.608333 0.942662 0.432714
20 1 0.108333 0.154757 0.561245
68 1 0.608333 0.154757 0.561245
141 1 0.358333 0.0775991 0.525646
189 1 0.858333 0.0775991 0.525646
138 1 0.108333 0.0196589 0.571392
186 1 0.608333 0.0196589 0.571392
24 1 0.358333 0.212576 0.514545
72 1 0.858333 0.212576 0.514545
47 1 0.358333 0.269659 0.571392
95 1 0.858333 0.269659 0.571392
41 1 0.108333 0.327599 0.525646
89 1 0.608333 0.327599 0.525646
16 1 0.108333 0.462576 0.514545
64 1 0.608333 0.462576 0.514545
22 1 0.358333 0.404757 0.561245
70 1 0.858333 0.404757 0.561245
42 1 0.108333 0.519659 0.571392
90 1 0.608333 0.519659 0.571392
45 1 0.358333 0.577599 0.525646
93 1 0.858333 0.577599 0.525646
116 1 0.108333 0.654757 0.561245
164 1 0.608333 0.654757 0.561245
120 1 0.358333 0.712576 0.514545
168 1 0.858333 0.712576 0.514545
143 1 0.358333 0.769659 0.571392
191 1 0.858333 0.769659 0.571392
137 1 0.108333 0.827599 0.525646
185 1 0.608333 0.827599 0.525646
112 1 0.108333 0.962576 0.514545
160 1 0.608333 0.962576 0.514545
118 1 0.358333 0.904757 0.561245
166 1 0.858333 0.904757 0.561245
119 1 0.358333 0.0979283 0.6065
167 1 0.858333 0.0979283 0.6065
46 1 0.108333 0.213358 0.615691
94 1 0.608333 0.213358 0.615691
21 1 0.108333 0.347928 0.6065
69 1 0.608333 0.347928 0.6065
48 1 0.358333 0.463358 0.615691
96 1 0.858333 0.463358 0.615691
23 1 0.358333 0.597928 0.6065
71 1 0.858333 0.597928 0.6065
142 1 0.108333 0.713358 0.615691
190 1 0.608333 0.713358 0.615691
117 1 0.108333 0.847928 0.6065
165 1 0.608333 0.847928 0.6065
144 1 0.358333 0.963358 0.615691
192 1 0.858333 0.963358 0.615691
