ITEM: TIMESTEP
128
ITEM: NUMBER OF ATOMS
192
ITEM: BOX BOUNDS pp pp pp
0.0000000000000000e+00 7.1176886540000002e+00
0.0000000000000000e+00 2.5858194780409800e+01
0.0000000000000000e+00 4.8301037599330101e+01
ITEM: ATOMS id type xs ys zs
1 1 0 0.121395 0
7 1 0.25 0.0650943 0.0442794
49 1 0.5 0.121395 0
55 1 0.75 0.0650943 0.0442794
2 1 3.36001e-17 0.315094 0.0442794
26 1 0 0.179996 0.0544347
28 1 0.25 0.236825 0.00919034
50 1 0.5 0.315094 0.0442794
74 1 0.5 0.179996 0.0544347
76 1 0.75 0.236825 0.00919034
3 1 0.25 0.371395 0
25 1 0 0.486825 0.00919034
29 1 0.25 0.429996 0.0544347
51 1 0.75 0.371395 0
73 1 0.5 0.486825 0.00919034
77 1 0.75 0.429996 0.0544347
97 1 0 0.621395 0
103 1 0.25 0.565094 0.0442794
145 1 0.5 0.621395 0
151 1 0.75 0.565094 0.0442794
98 1 3.56679e-17 0.815094 0.0442794
122 1 4.00817e-17 0.679996 0.0544347
124 1 0.25 0.736825 0.00919034
146 1 0.5 0.815094 0.0442794
170 1 0.5 0.679996 0.0544347
172 1 0.75 0.736825 0.00919034
99 1 0.25 0.871395 0
121 1 0 0.986825 0.00919034
125 1 0.25 0.929996 0.0544347
147 1 0.75 0.871395 0
169 1 0.5 0.986825 0.00919034
173 1 0.75 0.929996 0.0544347
4 1 0 0.00715404 0.0899934
33 1 0.25 0.122177 0.101106
52 1 0.5 0.00715404 0.0899934
81 1 0.75 0.122177 0.101106
30 1 3.41948e-17 0.0646243 0.147338
78 1 0.5 0.0646243 0.147338
5 1 1 0.199689 0.136264
8 1 0.25 0.257154 0.0899934
53 1 0.5 0.199689 0.136264
56 1 0.75 0.257154 0.0899934
34 1 0.25 0.314624 0.147338
82 1 0.75 0.314624 0.147338
9 1 0.25 0.449689 0.136264
27 1 0 0.372177 0.101106
57 1 0.75 0.449689 0.136264
75 1 0.5 0.372177 0.101106
100 1 1.04306e-17 0.507154 0.0899934
129 1 0.25 0.622177 0.101106
148 1 0.5 0.507154 0.0899934
177 1 0.75 0.622177 0.101106
126 1 0 0.564624 0.147338
174 1 0.5 0.564624 0.147338
101 1 0 0.699689 0.136264
104 1 0.25 0.757154 0.0899934
149 1 0.5 0.699689 0.136264
152 1 0.75 0.757154 0.0899934
130 1 0.25 0.814624 0.147338
178 1 0.75 0.814624 0.147338
105 1 0.25 0.949689 0.136264
123 1 1.74769e-17 0.872177 0.101106
153 1 0.75 0.949689 0.136264
171 1 0.5 0.872177 0.101106
13 1 0.25 0.142091 0.182864
37 1 0.25 0.00705467 0.193131
61 1 0.75 0.142091 0.182864
85 1 0.75 0.00705467 0.193131
10 1 0 0.0845159 0.228387
58 1 0.5 0.0845159 0.228387
31 1 4.88341e-17 0.257055 0.193131
79 1 0.5 0.257055 0.193131
38 1 0.25 0.199479 0.237255
86 1 0.75 0.199479 0.237255
6 1 0 0.392091 0.182864
54 1 0.5 0.392091 0.182864
14 1 0.25 0.334516 0.228387
32 1 0 0.449479 0.237255
62 1 0.75 0.334516 0.228387
80 1 0.5 0.449479 0.237255
109 1 0.25 0.642091 0.182864
133 1 0.25 0.507055 0.193131
157 1 0.75 0.642091 0.182864
181 1 0.75 0.507055 0.193131
106 1 0 0.584516 0.228387
154 1 0.5 0.584516 0.228387
127 1 4.16389e-17 0.757055 0.193131
175 1 0.5 0.757055 0.193131
134 1 0.25 0.699479 0.237255
182 1 0.75 0.699479 0.237255
102 1 7.3366e-17 0.892091 0.182864
150 1 0.5 0.892091 0.182864
110 1 0.25 0.834516 0.228387
128 1 1 0.949479 0.237255
158 1 0.75 0.834516 0.228387
176 1 0.5 0.949479 0.237255
17 1 0.341667 0.118608 0.378435
65 1 0.841667 0.118608 0.378435
35 1 0.0916667 0.23357 0.387304
83 1 0.591667 0.23357 0.387304
11 1 0.0916667 0.368608 0.378435
59 1 0.591667 0.368608 0.378435
39 1 0.341667 0.48357 0.387304
87 1 0.841667 0.48357 0.387304
113 1 0.341667 0.618608 0.378435
161 1 0.841667 0.618608 0.378435
131 1 0.0916667 0.73357 0.387304
179 1 0.591667 0.73357 0.387304
107 1 0.0916667 0.868608 0.378435
155 1 0.591667 0.868608 0.378435
135 1 0.341667 0.98357 0.387304
183 1 0.841667 0.98357 0.387304
108 1 0.0916667 0.0610316 0.422559
156 1 0.591667 0.0610316 0.422559
40 1 0.0916667 0.118398 0.479426
88 1 0.591667 0.118398 0.479426
115 1 0.341667 0.00346198 0.468353
163 1 0.841667 0.00346198 0.468353
43 1 0.341667 0.175995 0.432826
91 1 0.841667 0.175995 0.432826
18 1 0.341667 0.311032 0.422559
66 1 0.841667 0.311032 0.422559
15 1 0.0916667 0.253462 0.468353
63 1 0.591667 0.253462 0.468353
44 1 0.341667 0.368398 0.479426
92 1 0.841667 0.368398 0.479426
36 1 0.0916667 0.425995 0.432826
84 1 0.591667 0.425995 0.432826
19 1 0.341667 0.503462 0.468353
67 1 0.841667 0.503462 0.468353
12 1 0.0916667 0.561032 0.422559
60 1 0.591667 0.561032 0.422559
136 1 0.0916667 0.618398 0.479426
184 1 0.591667 0.618398 0.479426
139 1 0.341667 0.675995 0.432826
187 1 0.841667 0.675995 0.432826
114 1 0.341667 0.811032 0.422559
162 1 0.841667 0.811032 0.422559
111 1 0.0916667 0.753462 0.468353
159 1 0.591667 0.753462 0.468353
140 1 0.341667 0.868398 0.479426
188 1 0.841667 0.868398 0.479426
132 1 0.0916667 0.925995 0.432826
180 1 0.591667 0.925995 0.432826
20 1 0.0916667 0.138091 0.561256
68 1 0.591667 0.138091 0.561256
141 1 0.341667 0.0609324 0.525697
189 1 0.841667 0.0609324 0.525697
138 1 0.0916667 0.00299224 0.571411
186 1 0.591667 0.00299224 0.571411
24 1 0.341667 0.195909 0.514585
72 1 0.841667 0.195909 0.514585
47 1 0.341667 0.252992 0.571411
95 1 0.841667 0.252992 0.571411
41 1 0.0916667 0.310932 0.525697
89 1 0.591667 0.310932 0.525697
16 1 0.0916667 0.445909 0.514585
64 1 0.591667 0.445909 0.514585
22 1 0.341667 0.388091 0.561256
70 1 0.841667 0.388091 0.561256
42 1 0.0916667 0.502992 0.571411
90 1 0.591667 0.502992 0.571411
45 1 0.341667 0.560932 0.525697
93 1 0.841667 0.560932 0.525697
116 1 0.0916667 0.638091 0.561256
164 1 0.591667 0.638091 0.561256
120 1 0.341667 0.695909 0.514585
168 1 0.841667 0.695909 0.514585
143 1 0.341667 0.752992 0.571411
191 1 0.841667 0.752992 0.571411
137 1 0.0916667 0.810932 0.525697
185 1 0.591667 0.810932 0.525697
112 1 0.0916667 0.945909 0.514585
160 1 0.591667 0.945909 0.514585
118 1 0.341667 0.888091 0.561256
166 1 0.841667 0.888091 0.561256
119 1 0.341667 0.0812617 0.6065
167 1 0.841667 0.0812617 0.6065
46 1 0.0916667 0.196692 0.615691
94 1 0.591667 0.196692 0.615691
21 1 0.0916667 0.331262 0.6065
69 1 0.591667 0.331262 0.6065
48 1 0.341667 0.446692 0.615691
96 1 0.841667 0.446692 0.615691
23 1 0.341667 0.581262 0.6065
71 1 0.841667 0.581262 0.6065
142 1 0.0916667 0.696692 0.615691
190 1 0.591667 0.696692 0.615691
117 1 0.0916667 0.831262 0.6065
165 1 0.591667 0.831262 0.6065
144 1 0.341667 0.946692 0.615691
192 1 0.841667 0.946692 0.615691
