ITEM: TIMESTEP
225
ITEM: NUMBER OF ATOMS
192
ITEM: BOX BOUNDS pp pp pp
0.0000000000000000e+00 5.9011998176000002e+00
0.0000000000000000e+00 2.1324426539756200e+01
0.0000000000000000e+00 4.3042699813799999e+01
ITEM: ATOMS id type xs ys zs
1 1 0 0.121395 0
7 1 0.25 0.0685083 0.0487617
26 1 1 0.183377 0.0576393
49 1 0.5 0.121395 0
55 1 0.75 0.0685083 0.0487617
74 1 0.5 0.183377 0.0576393
2 1 0 0.318508 0.0487617
3 1 0.25 0.371395 0
28 1 0.25 0.236825 0.00868461
50 1 0.5 0.318508 0.0487617
51 1 0.75 0.371395 0
76 1 0.75 0.236825 0.00868461
25 1 0 0.486825 0.00868461
29 1 0.25 0.433377 0.0576393
73 1 0.5 0.486825 0.00868461
77 1 0.75 0.433377 0.0576393
103 1 0.25 0.568508 0.0487617
151 1 0.75 0.568508 0.0487617
97 1 0 0.621395 0
122 1 1 0.683377 0.0576393
124 1 0.25 0.736825 0.00868461
145 1 0.5 0.621395 0
170 1 0.5 0.683377 0.0576393
172 1 0.75 0.736825 0.00868461
98 1 1.50508e-16 0.818508 0.0487617
99 1 0.25 0.871395 0
121 1 0 0.986825 0.00868461
125 1 0.25 0.933377 0.0576393
146 1 0.5 0.818508 0.0487617
147 1 0.75 0.871395 0
169 1 0.5 0.986825 0.00868461
173 1 0.75 0.933377 0.0576393
4 1 0 0.00925805 0.102468
30 1 0 0.0667923 0.162935
33 1 0.25 0.125018 0.110922
52 1 0.5 0.00925805 0.102468
78 1 0.5 0.0667923 0.162935
81 1 0.75 0.125018 0.110922
5 1 0 0.201122 0.154453
53 1 0.5 0.201122 0.154453
8 1 0.25 0.259258 0.102468
27 1 0 0.375018 0.110922
34 1 0.25 0.316792 0.162935
56 1 0.75 0.259258 0.102468
75 1 0.5 0.375018 0.110922
82 1 0.75 0.316792 0.162935
9 1 0.25 0.451122 0.154453
57 1 0.75 0.451122 0.154453
100 1 1 0.509258 0.102468
126 1 0 0.566792 0.162935
148 1 0.5 0.509258 0.102468
174 1 0.5 0.566792 0.162935
101 1 0 0.701122 0.154453
104 1 0.25 0.759258 0.102468
129 1 0.25 0.625018 0.110922
149 1 0.5 0.701122 0.154453
152 1 0.75 0.759258 0.102468
177 1 0.75 0.625018 0.110922
105 1 0.25 0.951122 0.154453
123 1 2.18999e-17 0.875018 0.110922
130 1 0.25 0.816792 0.162935
153 1 0.75 0.951122 0.154453
171 1 0.5 0.875018 0.110922
178 1 0.75 0.816792 0.162935
10 1 1 0.0845017 0.25952
13 1 0.25 0.142759 0.207531
37 1 0.25 0.0084478 0.215487
58 1 0.5 0.0845017 0.25952
61 1 0.75 0.142759 0.207531
85 1 0.75 0.0084478 0.215487
38 1 0.25 0.200198 0.266289
86 1 0.75 0.200198 0.266289
6 1 1 0.392759 0.207531
14 1 0.25 0.334502 0.25952
31 1 2.09346e-16 0.258448 0.215487
54 1 0.5 0.392759 0.207531
62 1 0.75 0.334502 0.25952
79 1 0.5 0.258448 0.215487
32 1 0 0.450198 0.266289
80 1 0.5 0.450198 0.266289
106 1 1.50508e-16 0.584502 0.25952
133 1 0.25 0.508448 0.215487
154 1 0.5 0.584502 0.25952
181 1 0.75 0.508448 0.215487
109 1 0.25 0.642759 0.207531
127 1 1.46313e-17 0.758448 0.215487
134 1 0.25 0.700198 0.266289
157 1 0.75 0.642759 0.207531
175 1 0.5 0.758448 0.215487
182 1 0.75 0.700198 0.266289
102 1 0 0.892759 0.207531
110 1 0.25 0.834502 0.25952
128 1 1.50508e-16 0.950198 0.266289
150 1 0.5 0.892759 0.207531
158 1 0.75 0.834502 0.25952
176 1 0.5 0.950198 0.266289
135 1 0.475 0.116918 0.322291
183 1 0.975 0.116918 0.322291
107 1 0.225 0.00122148 0.315521
155 1 0.725 0.00122148 0.315521
17 1 0.475 0.251221 0.315521
65 1 0.975 0.251221 0.315521
35 1 0.225 0.366918 0.322291
83 1 0.725 0.366918 0.322291
11 1 0.225 0.501221 0.315521
59 1 0.725 0.501221 0.315521
39 1 0.475 0.616918 0.322291
87 1 0.975 0.616918 0.322291
113 1 0.475 0.751221 0.315521
161 1 0.975 0.751221 0.315521
131 1 0.225 0.866918 0.322291
179 1 0.725 0.866918 0.322291
108 1 0.225 0.192972 0.366324
156 1 0.725 0.192972 0.366324
115 1 0.475 0.134627 0.418875
163 1 0.975 0.134627 0.418875
132 1 0.225 0.0586605 0.374279
180 1 0.725 0.0586605 0.374279
140 1 0.475 0.000298092 0.427358
188 1 0.975 0.000298092 0.427358
40 1 0.225 0.250298 0.427358
88 1 0.725 0.250298 0.427358
43 1 0.475 0.30866 0.374279
91 1 0.975 0.30866 0.374279
15 1 0.225 0.384627 0.418875
63 1 0.725 0.384627 0.418875
18 1 0.475 0.442972 0.366324
66 1 0.975 0.442972 0.366324
44 1 0.475 0.500298 0.427358
92 1 0.975 0.500298 0.427358
36 1 0.225 0.55866 0.374279
84 1 0.725 0.55866 0.374279
19 1 0.475 0.634627 0.418875
67 1 0.975 0.634627 0.418875
12 1 0.225 0.692972 0.366324
60 1 0.725 0.692972 0.366324
136 1 0.225 0.750298 0.427358
184 1 0.725 0.750298 0.427358
139 1 0.475 0.80866 0.374279
187 1 0.975 0.80866 0.374279
111 1 0.225 0.884627 0.418875
159 1 0.725 0.884627 0.418875
114 1 0.475 0.942972 0.366324
162 1 0.975 0.942972 0.366324
141 1 0.475 0.192162 0.479342
189 1 0.975 0.192162 0.479342
138 1 0.225 0.132912 0.533049
186 1 0.725 0.132912 0.533049
112 1 0.225 0.0764013 0.470889
160 1 0.725 0.0764013 0.470889
118 1 0.475 0.0180432 0.524171
166 1 0.975 0.0180432 0.524171
20 1 0.225 0.268043 0.524171
68 1 0.725 0.268043 0.524171
24 1 0.475 0.326401 0.470889
72 1 0.975 0.326401 0.470889
47 1 0.475 0.382912 0.533049
95 1 0.975 0.382912 0.533049
41 1 0.225 0.442162 0.479342
89 1 0.725 0.442162 0.479342
22 1 0.475 0.518043 0.524171
70 1 0.975 0.518043 0.524171
16 1 0.225 0.576401 0.470889
64 1 0.725 0.576401 0.470889
42 1 0.225 0.632912 0.533049
90 1 0.725 0.632912 0.533049
45 1 0.475 0.692162 0.479342
93 1 0.975 0.692162 0.479342
116 1 0.225 0.768043 0.524171
164 1 0.725 0.768043 0.524171
120 1 0.475 0.826401 0.470889
168 1 0.975 0.826401 0.470889
143 1 0.475 0.882912 0.533049
191 1 0.975 0.882912 0.533049
137 1 0.225 0.942162 0.479342
185 1 0.725 0.942162 0.479342
144 1 0.475 0.080025 0.58181
192 1 0.975 0.080025 0.58181
119 1 0.475 0.214595 0.573126
167 1 0.975 0.214595 0.573126
46 1 0.225 0.330025 0.58181
94 1 0.725 0.330025 0.58181
21 1 0.225 0.464595 0.573126
69 1 0.725 0.464595 0.573126
48 1 0.475 0.580025 0.58181
96 1 0.975 0.580025 0.58181
23 1 0.475 0.714595 0.573126
71 1 0.975 0.714595 0.573126
142 1 0.225 0.830025 0.58181
190 1 0.725 0.830025 0.58181
117 1 0.225 0.964595 0.573126
165 1 0.725 0.964595 0.573126
