ITEM: TIMESTEP
264
ITEM: NUMBER OF ATOMS
192
ITEM: BOX BOUNDS pp pp pp
0.0000000000000000e+00 7.1176886540000002e+00
0.0000000000000000e+00 2.5858194780409800e+01
0.0000000000000000e+00 4.8301037599330101e+01
ITEM: ATOMS id type xs ys zs
1 1 0 0.121395 0
7 1 0.25 0.0650943 0.0442875
49 1 0.5 0.121395 0
55 1 0.75 0.0650943 0.0442875
2 1 3.36001e-17 0.315094 0.0442875
26 1 0 0.179996 0.0544396
28 1 0.25 0.236825 0.00919034
50 1 0.5 0.315094 0.0442875
74 1 0.5 0.179996 0.0544396
76 1 0.75 0.236825 0.00919034
3 1 0.25 0.371395 0
25 1 0 0.486825 0.00919034
29 1 0.25 0.429996 0.0544396
51 1 0.75 0.371395 0
73 1 0.5 0.486825 0.00919034
77 1 0.75 0.429996 0.0544396
97 1 0 0.621395 0
103 1 0.25 0.565094 0.0442875
145 1 0.5 0.621395 0
151 1 0.75 0.565094 0.0442875
98 1 3.56679e-17 0.815094 0.0442875
122 1 4.00817e-17 0.679996 0.0544396
124 1 0.25 0.736825 0.00919034
146 1 0.5 0.815094 0.0442875
170 1 0.5 0.679996 0.0544396
172 1 0.75 0.736825 0.00919034
99 1 0.25 0.871395 0
121 1 0 0.986825 0.00919034
125 1 0.25 0.929996 0.0544396
147 1 0.75 0.871395 0
169 1 0.5 0.986825 0.00919034
173 1 0.75 0.929996 0.0544396
4 1 0 0.00715404 0.0900145
33 1 0.25 0.122177 0.101123
52 1 0.5 0.00715404 0.0900145
81 1 0.75 0.122177 0.101123
30 1 3.41948e-17 0.0646243 0.147367
78 1 0.5 0.0646243 0.147367
5 1 1 0.199689 0.136297
8 1 0.25 0.257154 0.0900145
53 1 0.5 0.199689 0.136297
56 1 0.75 0.257154 0.0900145
34 1 0.25 0.314624 0.147367
82 1 0.75 0.314624 0.147367
9 1 0.25 0.449689 0.136297
27 1 0 0.372177 0.101123
57 1 0.75 0.449689 0.136297
75 1 0.5 0.372177 0.101123
100 1 1.04306e-17 0.507154 0.0900145
129 1 0.25 0.622177 0.101123
148 1 0.5 0.507154 0.0900145
177 1 0.75 0.622177 0.101123
126 1 0 0.564624 0.147367
174 1 0.5 0.564624 0.147367
101 1 0 0.699689 0.136297
104 1 0.25 0.757154 0.0900145
149 1 0.5 0.699689 0.136297
152 1 0.75 0.757154 0.0900145
130 1 0.25 0.814624 0.147367
178 1 0.75 0.814624 0.147367
105 1 0.25 0.949689 0.136297
123 1 1.74769e-17 0.872177 0.101123
153 1 0.75 0.949689 0.136297
171 1 0.5 0.872177 0.101123
13 1 0.25 0.142091 0.182909
37 1 0.25 0.00705467 0.193173
61 1 0.75 0.142091 0.182909
85 1 0.75 0.00705467 0.193173
10 1 0 0.0845159 0.228436
58 1 0.5 0.0845159 0.228436
31 1 4.88341e-17 0.257055 0.193173
79 1 0.5 0.257055 0.193173
38 1 0.25 0.199479 0.237304
86 1 0.75 0.199479 0.237304
6 1 0 0.392091 0.182909
54 1 0.5 0.392091 0.182909
14 1 0.25 0.334516 0.228436
32 1 0 0.449479 0.237304
62 1 0.75 0.334516 0.228436
80 1 0.5 0.449479 0.237304
109 1 0.25 0.642091 0.182909
133 1 0.25 0.507055 0.193173
157 1 0.75 0.642091 0.182909
181 1 0.75 0.507055 0.193173
106 1 0 0.584516 0.228436
154 1 0.5 0.584516 0.228436
127 1 4.16389e-17 0.757055 0.193173
175 1 0.5 0.757055 0.193173
134 1 0.25 0.699479 0.237304
182 1 0.75 0.699479 0.237304
102 1 7.3366e-17 0.892091 0.182909
150 1 0.5 0.892091 0.182909
110 1 0.25 0.834516 0.228436
128 1 1 0.949479 0.237304
158 1 0.75 0.834516 0.228436
176 1 0.5 0.949479 0.237304
135 1 0.475 0.116904 0.387255
183 1 0.975 0.116904 0.387255
107 1 0.225 0.00194101 0.378386
155 1 0.725 0.00194101 0.378386
17 1 0.475 0.251941 0.378386
65 1 0.975 0.251941 0.378386
35 1 0.225 0.366904 0.387255
83 1 0.725 0.366904 0.387255
11 1 0.225 0.501941 0.378386
59 1 0.725 0.501941 0.378386
39 1 0.475 0.616904 0.387255
87 1 0.975 0.616904 0.387255
113 1 0.475 0.751941 0.378386
161 1 0.975 0.751941 0.378386
131 1 0.225 0.866904 0.387255
179 1 0.725 0.866904 0.387255
115 1 0.475 0.136795 0.468324
163 1 0.975 0.136795 0.468324
132 1 0.225 0.0593285 0.432782
180 1 0.725 0.0593285 0.432782
140 1 0.475 0.00173088 0.479393
188 1 0.975 0.00173088 0.479393
108 1 0.225 0.194365 0.422518
156 1 0.725 0.194365 0.422518
40 1 0.225 0.251731 0.479393
88 1 0.725 0.251731 0.479393
43 1 0.475 0.309329 0.432782
91 1 0.975 0.309329 0.432782
15 1 0.225 0.386795 0.468324
63 1 0.725 0.386795 0.468324
18 1 0.475 0.444365 0.422518
66 1 0.975 0.444365 0.422518
44 1 0.475 0.501731 0.479393
92 1 0.975 0.501731 0.479393
36 1 0.225 0.559329 0.432782
84 1 0.725 0.559329 0.432782
19 1 0.475 0.636795 0.468324
67 1 0.975 0.636795 0.468324
12 1 0.225 0.694365 0.422518
60 1 0.725 0.694365 0.422518
136 1 0.225 0.751731 0.479393
184 1 0.725 0.751731 0.479393
139 1 0.475 0.809329 0.432782
187 1 0.975 0.809329 0.432782
111 1 0.225 0.886795 0.468324
159 1 0.725 0.886795 0.468324
114 1 0.475 0.944365 0.422518
162 1 0.975 0.944365 0.422518
138 1 0.225 0.136326 0.571403
186 1 0.725 0.136326 0.571403
112 1 0.225 0.0792424 0.514568
160 1 0.725 0.0792424 0.514568
118 1 0.475 0.021424 0.561251
166 1 0.975 0.021424 0.561251
141 1 0.475 0.194266 0.525676
189 1 0.975 0.194266 0.525676
20 1 0.225 0.271424 0.561251
68 1 0.725 0.271424 0.561251
24 1 0.475 0.329242 0.514568
72 1 0.975 0.329242 0.514568
47 1 0.475 0.386326 0.571403
95 1 0.975 0.386326 0.571403
41 1 0.225 0.444266 0.525676
89 1 0.725 0.444266 0.525676
22 1 0.475 0.521424 0.561251
70 1 0.975 0.521424 0.561251
16 1 0.225 0.579242 0.514568
64 1 0.725 0.579242 0.514568
42 1 0.225 0.636326 0.571403
90 1 0.725 0.636326 0.571403
45 1 0.475 0.694266 0.525676
93 1 0.975 0.694266 0.525676
116 1 0.225 0.771424 0.561251
164 1 0.725 0.771424 0.561251
120 1 0.475 0.829242 0.514568
168 1 0.975 0.829242 0.514568
143 1 0.475 0.886326 0.571403
191 1 0.975 0.886326 0.571403
137 1 0.225 0.944266 0.525676
185 1 0.725 0.944266 0.525676
144 1 0.475 0.080025 0.615691
192 1 0.975 0.080025 0.615691
119 1 0.475 0.214595 0.6065
167 1 0.975 0.214595 0.6065
46 1 0.225 0.330025 0.615691
94 1 0.725 0.330025 0.615691
21 1 0.225 0.464595 0.6065
69 1 0.725 0.464595 0.6065
48 1 0.475 0.580025 0.615691
96 1 0.975 0.580025 0.615691
23 1 0.475 0.714595 0.6065
71 1 0.975 0.714595 0.6065
142 1 0.225 0.830025 0.615691
190 1 0.725 0.830025 0.615691
117 1 0.225 0.964595 0.6065
165 1 0.725 0.964595 0.6065
