ITEM: TIMESTEP
186
ITEM: NUMBER OF ATOMS
192
ITEM: BOX BOUNDS pp pp pp
0.0000000000000000e+00 7.1176886540000002e+00
0.0000000000000000e+00 2.5858194780409800e+01
0.0000000000000000e+00 4.8301037599330101e+01
ITEM: ATOMS id type xs ys zs
1 1 0 0.121395 0
7 1 0.25 0.0650943 0.0443563
49 1 0.5 0.121395 0
55 1 0.75 0.0650943 0.0443563
2 1 3.36001e-17 0.315094 0.0443563
26 1 0 0.179996 0.0544798
28 1 0.25 0.236825 0.00919034
50 1 0.5 0.315094 0.0443563
74 1 0.5 0.179996 0.0544798
76 1 0.75 0.236825 0.00919034
3 1 0.25 0.371395 0
25 1 0 0.486825 0.00919034
29 1 0.25 0.429996 0.0544798
51 1 0.75 0.371395 0
73 1 0.5 0.486825 0.00919034
77 1 0.75 0.429996 0.0544798
97 1 0 0.621395 0
103 1 0.25 0.565094 0.0443563
145 1 0.5 0.621395 0
151 1 0.75 0.565094 0.0443563
98 1 3.56679e-17 0.815094 0.0443563
122 1 4.00817e-17 0.679996 0.0544798
124 1 0.25 0.736825 0.00919034
146 1 0.5 0.815094 0.0443563
170 1 0.5 0.679996 0.0544798
172 1 0.75 0.736825 0.00919034
99 1 0.25 0.871395 0
121 1 0 0.986825 0.00919034
125 1 0.25 0.929996 0.0544798
147 1 0.75 0.871395 0
169 1 0.5 0.986825 0.00919034
173 1 0.75 0.929996 0.0544798
4 1 0 0.00715404 0.0901901
33 1 0.25 0.122177 0.101263
52 1 0.5 0.00715404 0.0901901
81 1 0.75 0.122177 0.101263
30 1 3.41948e-17 0.0646243 0.147611
78 1 0.5 0.0646243 0.147611
5 1 1 0.199689 0.136571
8 1 0.25 0.257154 0.0901901
53 1 0.5 0.199689 0.136571
56 1 0.75 0.257154 0.0901901
34 1 0.25 0.314624 0.147611
82 1 0.75 0.314624 0.147611
9 1 0.25 0.449689 0.136571
27 1 0 0.372177 0.101263
57 1 0.75 0.449689 0.136571
75 1 0.5 0.372177 0.101263
100 1 1.04306e-17 0.507154 0.0901901
129 1 0.25 0.622177 0.101263
148 1 0.5 0.507154 0.0901901
177 1 0.75 0.622177 0.101263
126 1 0 0.564624 0.147611
174 1 0.5 0.564624 0.147611
101 1 0 0.699689 0.136571
104 1 0.25 0.757154 0.0901901
149 1 0.5 0.699689 0.136571
152 1 0.75 0.757154 0.0901901
130 1 0.25 0.814624 0.147611
178 1 0.75 0.814624 0.147611
105 1 0.25 0.949689 0.136571
123 1 1.74769e-17 0.872177 0.101263
153 1 0.75 0.949689 0.136571
171 1 0.5 0.872177 0.101263
13 1 0.25 0.142091 0.183285
37 1 0.25 0.00705467 0.19352
61 1 0.75 0.142091 0.183285
85 1 0.75 0.00705467 0.19352
10 1 0 0.0845159 0.228836
58 1 0.5 0.0845159 0.228836
31 1 4.88341e-17 0.257055 0.19352
79 1 0.5 0.257055 0.19352
38 1 0.25 0.199479 0.23773
86 1 0.75 0.199479 0.23773
6 1 0 0.392091 0.183285
54 1 0.5 0.392091 0.183285
14 1 0.25 0.334516 0.228836
32 1 0 0.449479 0.23773
62 1 0.75 0.334516 0.228836
80 1 0.5 0.449479 0.23773
109 1 0.25 0.642091 0.183285
133 1 0.25 0.507055 0.19352
157 1 0.75 0.642091 0.183285
181 1 0.75 0.507055 0.19352
106 1 0 0.584516 0.228836
154 1 0.5 0.584516 0.228836
127 1 4.16389e-17 0.757055 0.19352
175 1 0.5 0.757055 0.19352
134 1 0.25 0.699479 0.23773
182 1 0.75 0.699479 0.23773
102 1 7.3366e-17 0.892091 0.183285
150 1 0.5 0.892091 0.183285
110 1 0.25 0.834516 0.228836
128 1 1 0.949479 0.23773
158 1 0.75 0.834516 0.228836
176 1 0.5 0.949479 0.23773
135 1 0.391667 0.0335704 0.386854
183 1 0.891667 0.0335704 0.386854
17 1 0.391667 0.168608 0.377961
65 1 0.891667 0.168608 0.377961
35 1 0.141667 0.28357 0.386854
83 1 0.641667 0.28357 0.386854
11 1 0.141667 0.418608 0.377961
59 1 0.641667 0.418608 0.377961
39 1 0.391667 0.53357 0.386854
87 1 0.891667 0.53357 0.386854
113 1 0.391667 0.668608 0.377961
161 1 0.891667 0.668608 0.377961
131 1 0.141667 0.78357 0.386854
179 1 0.641667 0.78357 0.386854
107 1 0.141667 0.918608 0.377961
155 1 0.641667 0.918608 0.377961
108 1 0.141667 0.111032 0.422171
156 1 0.641667 0.111032 0.422171
115 1 0.391667 0.053462 0.46808
163 1 0.891667 0.053462 0.46808
40 1 0.141667 0.168398 0.479119
88 1 0.641667 0.168398 0.479119
43 1 0.391667 0.225995 0.432405
91 1 0.891667 0.225995 0.432405
15 1 0.141667 0.303462 0.46808
63 1 0.641667 0.303462 0.46808
18 1 0.391667 0.361032 0.422171
66 1 0.891667 0.361032 0.422171
44 1 0.391667 0.418398 0.479119
92 1 0.891667 0.418398 0.479119
36 1 0.141667 0.475995 0.432405
84 1 0.641667 0.475995 0.432405
19 1 0.391667 0.553462 0.46808
67 1 0.891667 0.553462 0.46808
12 1 0.141667 0.611032 0.422171
60 1 0.641667 0.611032 0.422171
136 1 0.141667 0.668398 0.479119
184 1 0.641667 0.668398 0.479119
139 1 0.391667 0.725995 0.432405
187 1 0.891667 0.725995 0.432405
111 1 0.141667 0.803462 0.46808
159 1 0.641667 0.803462 0.46808
114 1 0.391667 0.861032 0.422171
162 1 0.891667 0.861032 0.422171
140 1 0.391667 0.918398 0.479119
188 1 0.891667 0.918398 0.479119
132 1 0.141667 0.975995 0.432405
180 1 0.641667 0.975995 0.432405
141 1 0.391667 0.110932 0.5255
189 1 0.891667 0.110932 0.5255
138 1 0.141667 0.0529922 0.571334
186 1 0.641667 0.0529922 0.571334
20 1 0.141667 0.188091 0.561211
68 1 0.641667 0.188091 0.561211
24 1 0.391667 0.245909 0.514428
72 1 0.891667 0.245909 0.514428
47 1 0.391667 0.302992 0.571334
95 1 0.891667 0.302992 0.571334
41 1 0.141667 0.360932 0.5255
89 1 0.641667 0.360932 0.5255
16 1 0.141667 0.495909 0.514428
64 1 0.641667 0.495909 0.514428
22 1 0.391667 0.438091 0.561211
70 1 0.891667 0.438091 0.561211
42 1 0.141667 0.552992 0.571334
90 1 0.641667 0.552992 0.571334
45 1 0.391667 0.610932 0.5255
93 1 0.891667 0.610932 0.5255
116 1 0.141667 0.688091 0.561211
164 1 0.641667 0.688091 0.561211
120 1 0.391667 0.745909 0.514428
168 1 0.891667 0.745909 0.514428
143 1 0.391667 0.802992 0.571334
191 1 0.891667 0.802992 0.571334
137 1 0.141667 0.860932 0.5255
185 1 0.641667 0.860932 0.5255
112 1 0.141667 0.995909 0.514428
160 1 0.641667 0.995909 0.514428
118 1 0.391667 0.938091 0.561211
166 1 0.891667 0.938091 0.561211
119 1 0.391667 0.131262 0.6065
167 1 0.891667 0.131262 0.6065
46 1 0.141667 0.246692 0.615691
94 1 0.641667 0.246692 0.615691
21 1 0.141667 0.381262 0.6065
69 1 0.641667 0.381262 0.6065
48 1 0.391667 0.496692 0.615691
96 1 0.891667 0.496692 0.615691
23 1 0.391667 0.631262 0.6065
71 1 0.891667 0.631262 0.6065
142 1 0.141667 0.746692 0.615691
190 1 0.641667 0.746692 0.615691
117 1 0.141667 0.881262 0.6065
165 1 0.641667 0.881262 0.6065
144 1 0.391667 0.996692 0.615691
192 1 0.891667 0.996692 0.615691
