ITEM: TIMESTEP
113
ITEM: NUMBER OF ATOMS
192
ITEM: BOX BOUNDS pp pp pp
0.0000000000000000e+00 5.9011998176000002e+00
0.0000000000000000e+00 2.1324426539756200e+01
0.0000000000000000e+00 4.3042699813799999e+01
ITEM: ATOMS id type xs ys zs
1 1 0 0.121395 0
7 1 0.25 0.0685083 0.0485012
26 1 1 0.183377 0.0573917
49 1 0.5 0.121395 0
55 1 0.75 0.0685083 0.0485012
74 1 0.5 0.183377 0.0573917
2 1 0 0.318508 0.0485012
3 1 0.25 0.371395 0
28 1 0.25 0.236825 0.00868461
50 1 0.5 0.318508 0.0485012
51 1 0.75 0.371395 0
76 1 0.75 0.236825 0.00868461
25 1 0 0.486825 0.00868461
29 1 0.25 0.433377 0.0573917
73 1 0.5 0.486825 0.00868461
77 1 0.75 0.433377 0.0573917
103 1 0.25 0.568508 0.0485012
151 1 0.75 0.568508 0.0485012
97 1 0 0.621395 0
122 1 1 0.683377 0.0573917
124 1 0.25 0.736825 0.00868461
145 1 0.5 0.621395 0
170 1 0.5 0.683377 0.0573917
172 1 0.75 0.736825 0.00868461
98 1 1.50508e-16 0.818508 0.0485012
99 1 0.25 0.871395 0
121 1 0 0.986825 0.00868461
125 1 0.25 0.933377 0.0573917
146 1 0.5 0.818508 0.0485012
147 1 0.75 0.871395 0
169 1 0.5 0.986825 0.00868461
173 1 0.75 0.933377 0.0573917
4 1 0 0.00925805 0.101902
30 1 0 0.0667923 0.161967
33 1 0.25 0.125018 0.110416
52 1 0.5 0.00925805 0.101902
78 1 0.5 0.0667923 0.161967
81 1 0.75 0.125018 0.110416
5 1 0 0.201122 0.153783
53 1 0.5 0.201122 0.153783
8 1 0.25 0.259258 0.101902
27 1 0 0.375018 0.110416
34 1 0.25 0.316792 0.161967
56 1 0.75 0.259258 0.101902
75 1 0.5 0.375018 0.110416
82 1 0.75 0.316792 0.161967
9 1 0.25 0.451122 0.153783
57 1 0.75 0.451122 0.153783
100 1 1 0.509258 0.101902
126 1 0 0.566792 0.161967
148 1 0.5 0.509258 0.101902
174 1 0.5 0.566792 0.161967
101 1 0 0.701122 0.153783
104 1 0.25 0.759258 0.101902
129 1 0.25 0.625018 0.110416
149 1 0.5 0.701122 0.153783
152 1 0.75 0.759258 0.101902
177 1 0.75 0.625018 0.110416
105 1 0.25 0.951122 0.153783
123 1 2.18999e-17 0.875018 0.110416
130 1 0.25 0.816792 0.161967
153 1 0.75 0.951122 0.153783
171 1 0.5 0.875018 0.110416
178 1 0.75 0.816792 0.161967
10 1 1 0.0845017 0.259858
13 1 0.25 0.142759 0.206515
37 1 0.25 0.0084478 0.214165
58 1 0.5 0.0845017 0.259858
61 1 0.75 0.142759 0.206515
85 1 0.75 0.0084478 0.214165
38 1 0.25 0.200198 0.264593
86 1 0.75 0.200198 0.264593
6 1 1 0.392759 0.206515
14 1 0.25 0.334502 0.259858
31 1 2.09346e-16 0.258448 0.214165
54 1 0.5 0.392759 0.206515
62 1 0.75 0.334502 0.259858
79 1 0.5 0.258448 0.214165
32 1 0 0.450198 0.264593
80 1 0.5 0.450198 0.264593
106 1 1.50508e-16 0.584502 0.259858
133 1 0.25 0.508448 0.214165
154 1 0.5 0.584502 0.259858
181 1 0.75 0.508448 0.214165
109 1 0.25 0.642759 0.206515
127 1 1.46313e-17 0.758448 0.214165
134 1 0.25 0.700198 0.264593
157 1 0.75 0.642759 0.206515
175 1 0.5 0.758448 0.214165
182 1 0.75 0.700198 0.264593
102 1 0 0.892759 0.206515
110 1 0.25 0.834502 0.259858
128 1 1.50508e-16 0.950198 0.264593
150 1 0.5 0.892759 0.206515
158 1 0.75 0.834502 0.259858
176 1 0.5 0.950198 0.264593
17 1 0.358333 0.134555 0.317218
65 1 0.858333 0.134555 0.317218
135 1 0.358333 0.000251175 0.321952
183 1 0.858333 0.000251175 0.321952
35 1 0.108333 0.250251 0.321952
83 1 0.608333 0.250251 0.321952
11 1 0.108333 0.384555 0.317218
59 1 0.608333 0.384555 0.317218
39 1 0.358333 0.500251 0.321952
87 1 0.858333 0.500251 0.321952
113 1 0.358333 0.634555 0.317218
161 1 0.858333 0.634555 0.317218
131 1 0.108333 0.750251 0.321952
179 1 0.608333 0.750251 0.321952
107 1 0.108333 0.884555 0.317218
155 1 0.608333 0.884555 0.317218
40 1 0.108333 0.133631 0.428027
43 1 0.358333 0.191994 0.375296
88 1 0.608333 0.133631 0.428027
91 1 0.858333 0.191994 0.375296
108 1 0.108333 0.0763051 0.367645
156 1 0.608333 0.0763051 0.367645
115 1 0.358333 0.0179607 0.419844
163 1 0.858333 0.0179607 0.419844
15 1 0.108333 0.267961 0.419844
63 1 0.608333 0.267961 0.419844
18 1 0.358333 0.326305 0.367645
44 1 0.358333 0.383631 0.428027
66 1 0.858333 0.326305 0.367645
92 1 0.858333 0.383631 0.428027
36 1 0.108333 0.441994 0.375296
84 1 0.608333 0.441994 0.375296
12 1 0.108333 0.576305 0.367645
19 1 0.358333 0.517961 0.419844
60 1 0.608333 0.576305 0.367645
67 1 0.858333 0.517961 0.419844
136 1 0.108333 0.633631 0.428027
184 1 0.608333 0.633631 0.428027
139 1 0.358333 0.691994 0.375296
187 1 0.858333 0.691994 0.375296
111 1 0.108333 0.767961 0.419844
159 1 0.608333 0.767961 0.419844
114 1 0.358333 0.826305 0.367645
162 1 0.858333 0.826305 0.367645
140 1 0.358333 0.883631 0.428027
188 1 0.858333 0.883631 0.428027
132 1 0.108333 0.941994 0.375296
180 1 0.608333 0.941994 0.375296
20 1 0.108333 0.151377 0.524419
68 1 0.608333 0.151377 0.524419
141 1 0.358333 0.0754951 0.479908
189 1 0.858333 0.0754951 0.479908
138 1 0.108333 0.0162449 0.533309
186 1 0.608333 0.0162449 0.533309
24 1 0.358333 0.209735 0.471395
72 1 0.858333 0.209735 0.471395
47 1 0.358333 0.266245 0.533309
95 1 0.858333 0.266245 0.533309
41 1 0.108333 0.325495 0.479908
89 1 0.608333 0.325495 0.479908
22 1 0.358333 0.401377 0.524419
70 1 0.858333 0.401377 0.524419
16 1 0.108333 0.459735 0.471395
64 1 0.608333 0.459735 0.471395
42 1 0.108333 0.516245 0.533309
45 1 0.358333 0.575495 0.479908
90 1 0.608333 0.516245 0.533309
93 1 0.858333 0.575495 0.479908
116 1 0.108333 0.651377 0.524419
164 1 0.608333 0.651377 0.524419
120 1 0.358333 0.709735 0.471395
143 1 0.358333 0.766245 0.533309
168 1 0.858333 0.709735 0.471395
191 1 0.858333 0.766245 0.533309
137 1 0.108333 0.825495 0.479908
185 1 0.608333 0.825495 0.479908
118 1 0.358333 0.901377 0.524419
166 1 0.858333 0.901377 0.524419
112 1 0.108333 0.959735 0.471395
160 1 0.608333 0.959735 0.471395
119 1 0.358333 0.0979283 0.573126
167 1 0.858333 0.0979283 0.573126
46 1 0.108333 0.213358 0.58181
94 1 0.608333 0.213358 0.58181
21 1 0.108333 0.347928 0.573126
69 1 0.608333 0.347928 0.573126
48 1 0.358333 0.463358 0.58181
96 1 0.858333 0.463358 0.58181
23 1 0.358333 0.597928 0.573126
71 1 0.858333 0.597928 0.573126
142 1 0.108333 0.713358 0.58181
190 1 0.608333 0.713358 0.58181
117 1 0.108333 0.847928 0.573126
165 1 0.608333 0.847928 0.573126
144 1 0.358333 0.963358 0.58181
192 1 0.858333 0.963358 0.58181
