ITEM: TIMESTEP
254
ITEM: NUMBER OF ATOMS
192
ITEM: BOX BOUNDS pp pp pp
0.0000000000000000e+00 7.1176886540000002e+00
0.0000000000000000e+00 2.5858194780409800e+01
0.0000000000000000e+00 4.8301037599330101e+01
ITEM: ATOMS id type xs ys zs
1 1 0 0.121395 0
7 1 0.25 0.0650943 0.0442998
49 1 0.5 0.121395 0
55 1 0.75 0.0650943 0.0442998
2 1 3.36001e-17 0.315094 0.0442998
26 1 0 0.179996 0.0544469
28 1 0.25 0.236825 0.00919034
50 1 0.5 0.315094 0.0442998
74 1 0.5 0.179996 0.0544469
76 1 0.75 0.236825 0.00919034
3 1 0.25 0.371395 0
25 1 0 0.486825 0.00919034
29 1 0.25 0.429996 0.0544469
51 1 0.75 0.371395 0
73 1 0.5 0.486825 0.00919034
77 1 0.75 0.429996 0.0544469
97 1 0 0.621395 0
103 1 0.25 0.565094 0.0442998
145 1 0.5 0.621395 0
151 1 0.75 0.565094 0.0442998
98 1 3.56679e-17 0.815094 0.0442998
122 1 4.00817e-17 0.679996 0.0544469
124 1 0.25 0.736825 0.00919034
146 1 0.5 0.815094 0.0442998
170 1 0.5 0.679996 0.0544469
172 1 0.75 0.736825 0.00919034
99 1 0.25 0.871395 0
121 1 0 0.986825 0.00919034
125 1 0.25 0.929996 0.0544469
147 1 0.75 0.871395 0
169 1 0.5 0.986825 0.00919034
173 1 0.75 0.929996 0.0544469
4 1 0 0.00715404 0.0900462
33 1 0.25 0.122177 0.101148
52 1 0.5 0.00715404 0.0900462
81 1 0.75 0.122177 0.101148
30 1 3.41948e-17 0.0646243 0.147411
78 1 0.5 0.0646243 0.147411
5 1 1 0.199689 0.136346
8 1 0.25 0.257154 0.0900462
53 1 0.5 0.199689 0.136346
56 1 0.75 0.257154 0.0900462
34 1 0.25 0.314624 0.147411
82 1 0.75 0.314624 0.147411
9 1 0.25 0.449689 0.136346
27 1 0 0.372177 0.101148
57 1 0.75 0.449689 0.136346
75 1 0.5 0.372177 0.101148
100 1 1.04306e-17 0.507154 0.0900462
129 1 0.25 0.622177 0.101148
148 1 0.5 0.507154 0.0900462
177 1 0.75 0.622177 0.101148
126 1 0 0.564624 0.147411
174 1 0.5 0.564624 0.147411
101 1 0 0.699689 0.136346
104 1 0.25 0.757154 0.0900462
149 1 0.5 0.699689 0.136346
152 1 0.75 0.757154 0.0900462
130 1 0.25 0.814624 0.147411
178 1 0.75 0.814624 0.147411
105 1 0.25 0.949689 0.136346
123 1 1.74769e-17 0.872177 0.101148
153 1 0.75 0.949689 0.136346
171 1 0.5 0.872177 0.101148
13 1 0.25 0.142091 0.182976
37 1 0.25 0.00705467 0.193235
61 1 0.75 0.142091 0.182976
85 1 0.75 0.00705467 0.193235
10 1 0 0.0845159 0.228508
58 1 0.5 0.0845159 0.228508
31 1 4.88341e-17 0.257055 0.193235
79 1 0.5 0.257055 0.193235
38 1 0.25 0.199479 0.23738
86 1 0.75 0.199479 0.23738
6 1 0 0.392091 0.182976
54 1 0.5 0.392091 0.182976
14 1 0.25 0.334516 0.228508
32 1 0 0.449479 0.23738
62 1 0.75 0.334516 0.228508
80 1 0.5 0.449479 0.23738
109 1 0.25 0.642091 0.182976
133 1 0.25 0.507055 0.193235
157 1 0.75 0.642091 0.182976
181 1 0.75 0.507055 0.193235
106 1 0 0.584516 0.228508
154 1 0.5 0.584516 0.228508
127 1 4.16389e-17 0.757055 0.193235
175 1 0.5 0.757055 0.193235
134 1 0.25 0.699479 0.23738
182 1 0.75 0.699479 0.23738
102 1 7.3366e-17 0.892091 0.182976
150 1 0.5 0.892091 0.182976
110 1 0.25 0.834516 0.228508
128 1 1 0.949479 0.23738
158 1 0.75 0.834516 0.228508
176 1 0.5 0.949479 0.23738
135 1 0.466667 0.10857 0.387183
183 1 0.966667 0.10857 0.387183
17 1 0.466667 0.243608 0.37831
65 1 0.966667 0.243608 0.37831
35 1 0.216667 0.35857 0.387183
83 1 0.716667 0.35857 0.387183
11 1 0.216667 0.493608 0.37831
59 1 0.716667 0.493608 0.37831
39 1 0.466667 0.60857 0.387183
87 1 0.966667 0.60857 0.387183
113 1 0.466667 0.743608 0.37831
161 1 0.966667 0.743608 0.37831
131 1 0.216667 0.85857 0.387183
179 1 0.716667 0.85857 0.387183
107 1 0.216667 0.993608 0.37831
155 1 0.716667 0.993608 0.37831
115 1 0.466667 0.128462 0.46828
163 1 0.966667 0.128462 0.46828
132 1 0.216667 0.0509952 0.432714
180 1 0.716667 0.0509952 0.432714
108 1 0.216667 0.186032 0.422455
156 1 0.716667 0.186032 0.422455
40 1 0.216667 0.243398 0.479344
88 1 0.716667 0.243398 0.479344
43 1 0.466667 0.300995 0.432714
91 1 0.966667 0.300995 0.432714
15 1 0.216667 0.378462 0.46828
63 1 0.716667 0.378462 0.46828
18 1 0.466667 0.436032 0.422455
66 1 0.966667 0.436032 0.422455
44 1 0.466667 0.493398 0.479344
92 1 0.966667 0.493398 0.479344
36 1 0.216667 0.550995 0.432714
84 1 0.716667 0.550995 0.432714
19 1 0.466667 0.628462 0.46828
67 1 0.966667 0.628462 0.46828
12 1 0.216667 0.686032 0.422455
60 1 0.716667 0.686032 0.422455
136 1 0.216667 0.743398 0.479344
184 1 0.716667 0.743398 0.479344
139 1 0.466667 0.800995 0.432714
187 1 0.966667 0.800995 0.432714
111 1 0.216667 0.878462 0.46828
159 1 0.716667 0.878462 0.46828
114 1 0.466667 0.936032 0.422455
162 1 0.966667 0.936032 0.422455
140 1 0.466667 0.993398 0.479344
188 1 0.966667 0.993398 0.479344
138 1 0.216667 0.127992 0.571391
186 1 0.716667 0.127992 0.571391
112 1 0.216667 0.0709091 0.514543
160 1 0.716667 0.0709091 0.514543
118 1 0.466667 0.0130906 0.561244
166 1 0.966667 0.0130906 0.561244
141 1 0.466667 0.185932 0.525644
189 1 0.966667 0.185932 0.525644
20 1 0.216667 0.263091 0.561244
68 1 0.716667 0.263091 0.561244
24 1 0.466667 0.320909 0.514543
72 1 0.966667 0.320909 0.514543
47 1 0.466667 0.377992 0.571391
95 1 0.966667 0.377992 0.571391
41 1 0.216667 0.435932 0.525644
89 1 0.716667 0.435932 0.525644
22 1 0.466667 0.513091 0.561244
70 1 0.966667 0.513091 0.561244
16 1 0.216667 0.570909 0.514543
64 1 0.716667 0.570909 0.514543
42 1 0.216667 0.627992 0.571391
90 1 0.716667 0.627992 0.571391
45 1 0.466667 0.685932 0.525644
93 1 0.966667 0.685932 0.525644
116 1 0.216667 0.763091 0.561244
164 1 0.716667 0.763091 0.561244
120 1 0.466667 0.820909 0.514543
168 1 0.966667 0.820909 0.514543
143 1 0.466667 0.877992 0.571391
191 1 0.966667 0.877992 0.571391
137 1 0.216667 0.935932 0.525644
185 1 0.716667 0.935932 0.525644
144 1 0.466667 0.0716917 0.615691
192 1 0.966667 0.0716917 0.615691
119 1 0.466667 0.206262 0.6065
167 1 0.966667 0.206262 0.6065
46 1 0.216667 0.321692 0.615691
94 1 0.716667 0.321692 0.615691
21 1 0.216667 0.456262 0.6065
69 1 0.716667 0.456262 0.6065
48 1 0.466667 0.571692 0.615691
96 1 0.966667 0.571692 0.615691
23 1 0.466667 0.706262 0.6065
71 1 0.966667 0.706262 0.6065
142 1 0.216667 0.821692 0.615691
190 1 0.716667 0.821692 0.615691
117 1 0.216667 0.956262 0.6065
165 1 0.716667 0.956262 0.6065
