ITEM: TIMESTEP
90
ITEM: NUMBER OF ATOMS
192
ITEM: BOX BOUNDS pp pp pp
0.0000000000000000e+00 5.9011998176000002e+00
0.0000000000000000e+00 2.1324426539756200e+01
0.0000000000000000e+00 4.3042699813799999e+01
ITEM: ATOMS id type xs ys zs
1 1 0 0.121395 0
7 1 0.25 0.0685083 0.0484391
26 1 1 0.183377 0.0573445
49 1 0.5 0.121395 0
55 1 0.75 0.0685083 0.0484391
74 1 0.5 0.183377 0.0573445
2 1 0 0.318508 0.0484391
3 1 0.25 0.371395 0
28 1 0.25 0.236825 0.00868461
50 1 0.5 0.318508 0.0484391
51 1 0.75 0.371395 0
76 1 0.75 0.236825 0.00868461
25 1 0 0.486825 0.00868461
29 1 0.25 0.433377 0.0573445
73 1 0.5 0.486825 0.00868461
77 1 0.75 0.433377 0.0573445
103 1 0.25 0.568508 0.0484391
151 1 0.75 0.568508 0.0484391
97 1 0 0.621395 0
122 1 1 0.683377 0.0573445
124 1 0.25 0.736825 0.00868461
145 1 0.5 0.621395 0
170 1 0.5 0.683377 0.0573445
172 1 0.75 0.736825 0.00868461
98 1 1.50508e-16 0.818508 0.0484391
99 1 0.25 0.871395 0
121 1 0 0.986825 0.00868461
125 1 0.25 0.933377 0.0573445
146 1 0.5 0.818508 0.0484391
147 1 0.75 0.871395 0
169 1 0.5 0.986825 0.00868461
173 1 0.75 0.933377 0.0573445
4 1 0 0.00925805 0.101781
30 1 0 0.0667923 0.161889
33 1 0.25 0.125018 0.110301
52 1 0.5 0.00925805 0.101781
78 1 0.5 0.0667923 0.161889
81 1 0.75 0.125018 0.110301
5 1 0 0.201122 0.153468
53 1 0.5 0.201122 0.153468
8 1 0.25 0.259258 0.101781
27 1 0 0.375018 0.110301
34 1 0.25 0.316792 0.161889
56 1 0.75 0.259258 0.101781
75 1 0.5 0.375018 0.110301
82 1 0.75 0.316792 0.161889
9 1 0.25 0.451122 0.153468
57 1 0.75 0.451122 0.153468
100 1 1 0.509258 0.101781
126 1 0 0.566792 0.161889
148 1 0.5 0.509258 0.101781
174 1 0.5 0.566792 0.161889
101 1 0 0.701122 0.153468
104 1 0.25 0.759258 0.101781
129 1 0.25 0.625018 0.110301
149 1 0.5 0.701122 0.153468
152 1 0.75 0.759258 0.101781
177 1 0.75 0.625018 0.110301
105 1 0.25 0.951122 0.153468
123 1 2.18999e-17 0.875018 0.110301
130 1 0.25 0.816792 0.161889
153 1 0.75 0.951122 0.153468
171 1 0.5 0.875018 0.110301
178 1 0.75 0.816792 0.161889
10 1 1 0.0845017 0.258189
13 1 0.25 0.142759 0.206289
37 1 0.25 0.0084478 0.213902
58 1 0.5 0.0845017 0.258189
61 1 0.75 0.142759 0.206289
85 1 0.75 0.0084478 0.213902
38 1 0.25 0.200198 0.265401
86 1 0.75 0.200198 0.265401
6 1 1 0.392759 0.206289
14 1 0.25 0.334502 0.258189
31 1 2.09346e-16 0.258448 0.213902
54 1 0.5 0.392759 0.206289
62 1 0.75 0.334502 0.258189
79 1 0.5 0.258448 0.213902
32 1 0 0.450198 0.265401
80 1 0.5 0.450198 0.265401
106 1 1.50508e-16 0.584502 0.258189
133 1 0.25 0.508448 0.213902
154 1 0.5 0.584502 0.258189
181 1 0.75 0.508448 0.213902
109 1 0.25 0.642759 0.206289
127 1 1.46313e-17 0.758448 0.213902
134 1 0.25 0.700198 0.265401
157 1 0.75 0.642759 0.206289
175 1 0.5 0.758448 0.213902
182 1 0.75 0.700198 0.265401
102 1 0 0.892759 0.206289
110 1 0.25 0.834502 0.258189
128 1 1.50508e-16 0.950198 0.265401
150 1 0.5 0.892759 0.206289
158 1 0.75 0.834502 0.258189
176 1 0.5 0.950198 0.265401
17 1 0.333333 0.109555 0.31641
65 1 0.833333 0.109555 0.31641
35 1 0.0833333 0.225251 0.323622
83 1 0.583333 0.225251 0.323622
11 1 0.0833333 0.359555 0.31641
59 1 0.583333 0.359555 0.31641
39 1 0.333333 0.475251 0.323622
87 1 0.833333 0.475251 0.323622
113 1 0.333333 0.609555 0.31641
161 1 0.833333 0.609555 0.31641
131 1 0.0833333 0.725251 0.323622
179 1 0.583333 0.725251 0.323622
107 1 0.0833333 0.859555 0.31641
155 1 0.583333 0.859555 0.31641
135 1 0.333333 0.975251 0.323622
183 1 0.833333 0.975251 0.323622
40 1 0.0833333 0.108631 0.428343
43 1 0.333333 0.166994 0.375521
88 1 0.583333 0.108631 0.428343
91 1 0.833333 0.166994 0.375521
108 1 0.0833333 0.0513051 0.367909
156 1 0.583333 0.0513051 0.367909
15 1 0.0833333 0.242961 0.419921
63 1 0.583333 0.242961 0.419921
18 1 0.333333 0.301305 0.367909
44 1 0.333333 0.358631 0.428343
66 1 0.833333 0.301305 0.367909
92 1 0.833333 0.358631 0.428343
36 1 0.0833333 0.416994 0.375521
84 1 0.583333 0.416994 0.375521
12 1 0.0833333 0.551305 0.367909
19 1 0.333333 0.492961 0.419921
60 1 0.583333 0.551305 0.367909
67 1 0.833333 0.492961 0.419921
136 1 0.0833333 0.608631 0.428343
184 1 0.583333 0.608631 0.428343
139 1 0.333333 0.666994 0.375521
187 1 0.833333 0.666994 0.375521
111 1 0.0833333 0.742961 0.419921
159 1 0.583333 0.742961 0.419921
114 1 0.333333 0.801305 0.367909
162 1 0.833333 0.801305 0.367909
140 1 0.333333 0.858631 0.428343
188 1 0.833333 0.858631 0.428343
115 1 0.333333 0.992961 0.419921
132 1 0.0833333 0.916994 0.375521
163 1 0.833333 0.992961 0.419921
180 1 0.583333 0.916994 0.375521
20 1 0.0833333 0.126377 0.524466
24 1 0.333333 0.184735 0.47151
68 1 0.583333 0.126377 0.524466
72 1 0.833333 0.184735 0.47151
141 1 0.333333 0.0504951 0.48003
189 1 0.833333 0.0504951 0.48003
47 1 0.333333 0.241245 0.533371
95 1 0.833333 0.241245 0.533371
22 1 0.333333 0.376377 0.524466
41 1 0.0833333 0.300495 0.48003
70 1 0.833333 0.376377 0.524466
89 1 0.583333 0.300495 0.48003
16 1 0.0833333 0.434735 0.47151
64 1 0.583333 0.434735 0.47151
42 1 0.0833333 0.491245 0.533371
45 1 0.333333 0.550495 0.48003
90 1 0.583333 0.491245 0.533371
93 1 0.833333 0.550495 0.48003
116 1 0.0833333 0.626377 0.524466
164 1 0.583333 0.626377 0.524466
120 1 0.333333 0.684735 0.47151
143 1 0.333333 0.741245 0.533371
168 1 0.833333 0.684735 0.47151
191 1 0.833333 0.741245 0.533371
137 1 0.0833333 0.800495 0.48003
185 1 0.583333 0.800495 0.48003
118 1 0.333333 0.876377 0.524466
166 1 0.833333 0.876377 0.524466
112 1 0.0833333 0.934735 0.47151
138 1 0.0833333 0.991245 0.533371
160 1 0.583333 0.934735 0.47151
186 1 0.583333 0.991245 0.533371
46 1 0.0833333 0.188358 0.58181
94 1 0.583333 0.188358 0.58181
119 1 0.333333 0.0729283 0.573126
167 1 0.833333 0.0729283 0.573126
21 1 0.0833333 0.322928 0.573126
69 1 0.583333 0.322928 0.573126
48 1 0.333333 0.438358 0.58181
96 1 0.833333 0.438358 0.58181
23 1 0.333333 0.572928 0.573126
71 1 0.833333 0.572928 0.573126
142 1 0.0833333 0.688358 0.58181
190 1 0.583333 0.688358 0.58181
117 1 0.0833333 0.822928 0.573126
165 1 0.583333 0.822928 0.573126
144 1 0.333333 0.938358 0.58181
192 1 0.833333 0.938358 0.58181
