ITEM: TIMESTEP
39
ITEM: NUMBER OF ATOMS
192
ITEM: BOX BOUNDS pp pp pp
0.0000000000000000e+00 7.1176886540000002e+00
0.0000000000000000e+00 2.5858194780409800e+01
0.0000000000000000e+00 4.8301037599330101e+01
ITEM: ATOMS id type xs ys zs
1 1 0 0.121395 0
7 1 0.25 0.0650943 0.0536781
49 1 0.5 0.121395 0
55 1 0.75 0.0650943 0.0536781
2 1 3.36001e-17 0.315094 0.0536781
26 1 0 0.179996 0.0630213
28 1 0.25 0.236825 0.00919034
50 1 0.5 0.315094 0.0536781
74 1 0.5 0.179996 0.0630213
76 1 0.75 0.236825 0.00919034
3 1 0.25 0.371395 0
25 1 0 0.486825 0.00919034
29 1 0.25 0.429996 0.0630213
51 1 0.75 0.371395 0
73 1 0.5 0.486825 0.00919034
77 1 0.75 0.429996 0.0630213
97 1 0 0.621395 0
103 1 0.25 0.565094 0.0536781
145 1 0.5 0.621395 0
151 1 0.75 0.565094 0.0536781
98 1 3.56679e-17 0.815094 0.0536781
122 1 4.00817e-17 0.679996 0.0630213
124 1 0.25 0.736825 0.00919034
146 1 0.5 0.815094 0.0536781
170 1 0.5 0.679996 0.0630213
172 1 0.75 0.736825 0.00919034
99 1 0.25 0.871395 0
121 1 0 0.986825 0.00919034
125 1 0.25 0.929996 0.0630213
147 1 0.75 0.871395 0
169 1 0.5 0.986825 0.00919034
173 1 0.75 0.929996 0.0630213
4 1 0 0.00715404 0.108312
33 1 0.25 0.122177 0.118154
52 1 0.5 0.00715404 0.108312
81 1 0.75 0.122177 0.118154
5 1 1 0.199689 0.163236
8 1 0.25 0.257154 0.108312
53 1 0.5 0.199689 0.163236
56 1 0.75 0.257154 0.108312
9 1 0.25 0.449689 0.163236
27 1 0 0.372177 0.118154
57 1 0.75 0.449689 0.163236
75 1 0.5 0.372177 0.118154
100 1 1.04306e-17 0.507154 0.108312
129 1 0.25 0.622177 0.118154
148 1 0.5 0.507154 0.108312
177 1 0.75 0.622177 0.118154
101 1 0 0.699689 0.163236
104 1 0.25 0.757154 0.108312
149 1 0.5 0.699689 0.163236
152 1 0.75 0.757154 0.108312
105 1 0.25 0.949689 0.163236
123 1 1.74769e-17 0.872177 0.118154
153 1 0.75 0.949689 0.163236
171 1 0.5 0.872177 0.118154
13 1 0.25 0.142091 0.21831
30 1 3.41948e-17 0.0646243 0.172988
37 1 0.25 0.00705467 0.227547
61 1 0.75 0.142091 0.21831
78 1 0.5 0.0646243 0.172988
85 1 0.75 0.00705467 0.227547
31 1 4.88341e-17 0.257055 0.227547
34 1 0.25 0.314624 0.172988
79 1 0.5 0.257055 0.227547
82 1 0.75 0.314624 0.172988
6 1 0 0.392091 0.21831
54 1 0.5 0.392091 0.21831
109 1 0.25 0.642091 0.21831
126 1 0 0.564624 0.172988
133 1 0.25 0.507055 0.227547
157 1 0.75 0.642091 0.21831
174 1 0.5 0.564624 0.172988
181 1 0.75 0.507055 0.227547
127 1 4.16389e-17 0.757055 0.227547
130 1 0.25 0.814624 0.172988
175 1 0.5 0.757055 0.227547
178 1 0.75 0.814624 0.172988
102 1 7.3366e-17 0.892091 0.21831
150 1 0.5 0.892091 0.21831
10 1 0 0.0845159 0.272609
17 1 0.266667 0.0436077 0.332811
58 1 0.5 0.0845159 0.272609
65 1 0.766667 0.0436077 0.332811
11 1 0.0166667 0.293608 0.332811
38 1 0.25 0.199479 0.282879
59 1 0.516667 0.293608 0.332811
86 1 0.75 0.199479 0.282879
14 1 0.25 0.334516 0.272609
32 1 0 0.449479 0.282879
62 1 0.75 0.334516 0.272609
80 1 0.5 0.449479 0.282879
106 1 0 0.584516 0.272609
113 1 0.266667 0.543608 0.332811
154 1 0.5 0.584516 0.272609
161 1 0.766667 0.543608 0.332811
107 1 0.0166667 0.793608 0.332811
134 1 0.25 0.699479 0.282879
155 1 0.516667 0.793608 0.332811
182 1 0.75 0.699479 0.282879
110 1 0.25 0.834516 0.272609
128 1 1 0.949479 0.282879
158 1 0.75 0.834516 0.272609
176 1 0.5 0.949479 0.282879
35 1 0.0166667 0.15857 0.343081
43 1 0.266667 0.100995 0.39738
83 1 0.516667 0.15857 0.343081
91 1 0.766667 0.100995 0.39738
18 1 0.266667 0.236032 0.388144
66 1 0.766667 0.236032 0.388144
12 1 0.0166667 0.486032 0.388144
36 1 0.0166667 0.350995 0.39738
39 1 0.266667 0.40857 0.343081
60 1 0.516667 0.486032 0.388144
84 1 0.516667 0.350995 0.39738
87 1 0.766667 0.40857 0.343081
131 1 0.0166667 0.65857 0.343081
139 1 0.266667 0.600995 0.39738
179 1 0.516667 0.65857 0.343081
187 1 0.766667 0.600995 0.39738
114 1 0.266667 0.736032 0.388144
162 1 0.766667 0.736032 0.388144
108 1 0.0166667 0.986032 0.388144
132 1 0.0166667 0.850995 0.39738
135 1 0.266667 0.90857 0.343081
156 1 0.516667 0.986032 0.388144
180 1 0.516667 0.850995 0.39738
183 1 0.766667 0.90857 0.343081
24 1 0.266667 0.120909 0.497536
40 1 0.0166667 0.0433975 0.452455
72 1 0.766667 0.120909 0.497536
88 1 0.516667 0.0433975 0.452455
15 1 0.0166667 0.178462 0.442702
63 1 0.516667 0.178462 0.442702
44 1 0.266667 0.293398 0.452455
92 1 0.766667 0.293398 0.452455
16 1 0.0166667 0.370909 0.497536
19 1 0.266667 0.428462 0.442702
64 1 0.516667 0.370909 0.497536
67 1 0.766667 0.428462 0.442702
120 1 0.266667 0.620909 0.497536
136 1 0.0166667 0.543398 0.452455
168 1 0.766667 0.620909 0.497536
184 1 0.516667 0.543398 0.452455
111 1 0.0166667 0.678462 0.442702
159 1 0.516667 0.678462 0.442702
140 1 0.266667 0.793398 0.452455
188 1 0.766667 0.793398 0.452455
112 1 0.0166667 0.870909 0.497536
115 1 0.266667 0.928462 0.442702
160 1 0.516667 0.870909 0.497536
163 1 0.766667 0.928462 0.442702
20 1 0.0166667 0.0630906 0.552669
68 1 0.516667 0.0630906 0.552669
47 1 0.266667 0.177992 0.562012
95 1 0.766667 0.177992 0.562012
22 1 0.266667 0.313091 0.552669
41 1 0.0166667 0.235932 0.507379
70 1 0.766667 0.313091 0.552669
89 1 0.516667 0.235932 0.507379
42 1 0.0166667 0.427992 0.562012
45 1 0.266667 0.485932 0.507379
90 1 0.516667 0.427992 0.562012
93 1 0.766667 0.485932 0.507379
116 1 0.0166667 0.563091 0.552669
164 1 0.516667 0.563091 0.552669
143 1 0.266667 0.677992 0.562012
191 1 0.766667 0.677992 0.562012
118 1 0.266667 0.813091 0.552669
137 1 0.0166667 0.735932 0.507379
166 1 0.766667 0.813091 0.552669
185 1 0.516667 0.735932 0.507379
138 1 0.0166667 0.927992 0.562012
141 1 0.266667 0.985932 0.507379
186 1 0.516667 0.927992 0.562012
189 1 0.766667 0.985932 0.507379
46 1 0.0166667 0.121692 0.615691
94 1 0.516667 0.121692 0.615691
119 1 0.266667 0.00626166 0.6065
167 1 0.766667 0.00626166 0.6065
21 1 0.0166667 0.256262 0.6065
69 1 0.516667 0.256262 0.6065
48 1 0.266667 0.371692 0.615691
96 1 0.766667 0.371692 0.615691
23 1 0.266667 0.506262 0.6065
71 1 0.766667 0.506262 0.6065
142 1 0.0166667 0.621692 0.615691
190 1 0.516667 0.621692 0.615691
117 1 0.0166667 0.756262 0.6065
165 1 0.516667 0.756262 0.6065
144 1 0.266667 0.871692 0.615691
192 1 0.766667 0.871692 0.615691
