ITEM: TIMESTEP
164
ITEM: NUMBER OF ATOMS
192
ITEM: BOX BOUNDS pp pp pp
0.0000000000000000e+00 5.9011998176000002e+00
0.0000000000000000e+00 2.1324426539756200e+01
0.0000000000000000e+00 4.3042699813799999e+01
ITEM: ATOMS id type xs ys zs
1 1 0 0.121395 0
7 1 0.25 0.0685083 0.0483241
26 1 1 0.183377 0.0572351
49 1 0.5 0.121395 0
55 1 0.75 0.0685083 0.0483241
74 1 0.5 0.183377 0.0572351
2 1 0 0.318508 0.0483241
3 1 0.25 0.371395 0
28 1 0.25 0.236825 0.00868461
50 1 0.5 0.318508 0.0483241
51 1 0.75 0.371395 0
76 1 0.75 0.236825 0.00868461
25 1 0 0.486825 0.00868461
29 1 0.25 0.433377 0.0572351
73 1 0.5 0.486825 0.00868461
77 1 0.75 0.433377 0.0572351
103 1 0.25 0.568508 0.0483241
151 1 0.75 0.568508 0.0483241
97 1 0 0.621395 0
122 1 1 0.683377 0.0572351
124 1 0.25 0.736825 0.00868461
145 1 0.5 0.621395 0
170 1 0.5 0.683377 0.0572351
172 1 0.75 0.736825 0.00868461
98 1 1.50508e-16 0.818508 0.0483241
99 1 0.25 0.871395 0
121 1 0 0.986825 0.00868461
125 1 0.25 0.933377 0.0572351
146 1 0.5 0.818508 0.0483241
147 1 0.75 0.871395 0
169 1 0.5 0.986825 0.00868461
173 1 0.75 0.933377 0.0572351
4 1 0 0.00925805 0.101516
30 1 0 0.0667923 0.161444
33 1 0.25 0.125018 0.110078
52 1 0.5 0.00925805 0.101516
78 1 0.5 0.0667923 0.161444
81 1 0.75 0.125018 0.110078
5 1 0 0.201122 0.153148
53 1 0.5 0.201122 0.153148
8 1 0.25 0.259258 0.101516
27 1 0 0.375018 0.110078
34 1 0.25 0.316792 0.161444
56 1 0.75 0.259258 0.101516
75 1 0.5 0.375018 0.110078
82 1 0.75 0.316792 0.161444
9 1 0.25 0.451122 0.153148
57 1 0.75 0.451122 0.153148
100 1 1 0.509258 0.101516
126 1 0 0.566792 0.161444
148 1 0.5 0.509258 0.101516
174 1 0.5 0.566792 0.161444
101 1 0 0.701122 0.153148
104 1 0.25 0.759258 0.101516
129 1 0.25 0.625018 0.110078
149 1 0.5 0.701122 0.153148
152 1 0.75 0.759258 0.101516
177 1 0.75 0.625018 0.110078
105 1 0.25 0.951122 0.153148
123 1 2.18999e-17 0.875018 0.110078
130 1 0.25 0.816792 0.161444
153 1 0.75 0.951122 0.153148
171 1 0.5 0.875018 0.110078
178 1 0.75 0.816792 0.161444
10 1 1 0.0845017 0.258934
13 1 0.25 0.142759 0.205884
37 1 0.25 0.0084478 0.213603
58 1 0.5 0.0845017 0.258934
61 1 0.75 0.142759 0.205884
85 1 0.75 0.0084478 0.213603
38 1 0.25 0.200198 0.26298
86 1 0.75 0.200198 0.26298
6 1 1 0.392759 0.205884
14 1 0.25 0.334502 0.258934
31 1 2.09346e-16 0.258448 0.213603
54 1 0.5 0.392759 0.205884
62 1 0.75 0.334502 0.258934
79 1 0.5 0.258448 0.213603
32 1 0 0.450198 0.26298
80 1 0.5 0.450198 0.26298
106 1 1.50508e-16 0.584502 0.258934
133 1 0.25 0.508448 0.213603
154 1 0.5 0.584502 0.258934
181 1 0.75 0.508448 0.213603
109 1 0.25 0.642759 0.205884
127 1 1.46313e-17 0.758448 0.213603
134 1 0.25 0.700198 0.26298
157 1 0.75 0.642759 0.205884
175 1 0.5 0.758448 0.213603
182 1 0.75 0.700198 0.26298
102 1 0 0.892759 0.205884
110 1 0.25 0.834502 0.258934
128 1 1.50508e-16 0.950198 0.26298
150 1 0.5 0.892759 0.205884
158 1 0.75 0.834502 0.258934
176 1 0.5 0.950198 0.26298
17 1 0.416667 0.192888 0.31883
65 1 0.916667 0.192888 0.31883
135 1 0.416667 0.0585845 0.322876
183 1 0.916667 0.0585845 0.322876
35 1 0.166667 0.308585 0.322876
83 1 0.666667 0.308585 0.322876
11 1 0.166667 0.442888 0.31883
59 1 0.666667 0.442888 0.31883
39 1 0.416667 0.558585 0.322876
87 1 0.916667 0.558585 0.322876
113 1 0.416667 0.692888 0.31883
161 1 0.916667 0.692888 0.31883
131 1 0.166667 0.808585 0.322876
179 1 0.666667 0.808585 0.322876
107 1 0.166667 0.942888 0.31883
155 1 0.666667 0.942888 0.31883
40 1 0.166667 0.191965 0.428663
88 1 0.666667 0.191965 0.428663
108 1 0.166667 0.134638 0.368208
156 1 0.666667 0.134638 0.368208
115 1 0.416667 0.076294 0.420366
163 1 0.916667 0.076294 0.420366
132 1 0.166667 0.000327166 0.375927
180 1 0.666667 0.000327166 0.375927
43 1 0.416667 0.250327 0.375927
91 1 0.916667 0.250327 0.375927
15 1 0.166667 0.326294 0.420366
63 1 0.666667 0.326294 0.420366
18 1 0.416667 0.384638 0.368208
66 1 0.916667 0.384638 0.368208
44 1 0.416667 0.441965 0.428663
92 1 0.916667 0.441965 0.428663
36 1 0.166667 0.500327 0.375927
84 1 0.666667 0.500327 0.375927
19 1 0.416667 0.576294 0.420366
67 1 0.916667 0.576294 0.420366
12 1 0.166667 0.634638 0.368208
60 1 0.666667 0.634638 0.368208
136 1 0.166667 0.691965 0.428663
184 1 0.666667 0.691965 0.428663
139 1 0.416667 0.750327 0.375927
187 1 0.916667 0.750327 0.375927
111 1 0.166667 0.826294 0.420366
159 1 0.666667 0.826294 0.420366
114 1 0.416667 0.884638 0.368208
162 1 0.916667 0.884638 0.368208
140 1 0.416667 0.941965 0.428663
188 1 0.916667 0.941965 0.428663
141 1 0.416667 0.133828 0.480294
189 1 0.916667 0.133828 0.480294
138 1 0.166667 0.0745783 0.533486
186 1 0.666667 0.0745783 0.533486
112 1 0.166667 0.018068 0.471732
160 1 0.666667 0.018068 0.471732
20 1 0.166667 0.20971 0.524575
68 1 0.666667 0.20971 0.524575
24 1 0.416667 0.268068 0.471732
72 1 0.916667 0.268068 0.471732
47 1 0.416667 0.324578 0.533486
95 1 0.916667 0.324578 0.533486
41 1 0.166667 0.383828 0.480294
89 1 0.666667 0.383828 0.480294
22 1 0.416667 0.45971 0.524575
70 1 0.916667 0.45971 0.524575
16 1 0.166667 0.518068 0.471732
64 1 0.666667 0.518068 0.471732
42 1 0.166667 0.574578 0.533486
90 1 0.666667 0.574578 0.533486
45 1 0.416667 0.633828 0.480294
93 1 0.916667 0.633828 0.480294
116 1 0.166667 0.70971 0.524575
164 1 0.666667 0.70971 0.524575
120 1 0.416667 0.768068 0.471732
168 1 0.916667 0.768068 0.471732
143 1 0.416667 0.824578 0.533486
191 1 0.916667 0.824578 0.533486
137 1 0.166667 0.883828 0.480294
185 1 0.666667 0.883828 0.480294
118 1 0.416667 0.95971 0.524575
166 1 0.916667 0.95971 0.524575
119 1 0.416667 0.156262 0.573126
167 1 0.916667 0.156262 0.573126
144 1 0.416667 0.0216917 0.58181
192 1 0.916667 0.0216917 0.58181
46 1 0.166667 0.271692 0.58181
94 1 0.666667 0.271692 0.58181
21 1 0.166667 0.406262 0.573126
69 1 0.666667 0.406262 0.573126
48 1 0.416667 0.521692 0.58181
96 1 0.916667 0.521692 0.58181
23 1 0.416667 0.656262 0.573126
71 1 0.916667 0.656262 0.573126
142 1 0.166667 0.771692 0.58181
190 1 0.666667 0.771692 0.58181
117 1 0.166667 0.906262 0.573126
165 1 0.666667 0.906262 0.573126
