ITEM: TIMESTEP
76
ITEM: NUMBER OF ATOMS
192
ITEM: BOX BOUNDS pp pp pp
0.0000000000000000e+00 5.9011998176000002e+00
0.0000000000000000e+00 2.1324426539756200e+01
0.0000000000000000e+00 4.3042699813799999e+01
ITEM: ATOMS id type xs ys zs
1 1 0 0.121395 0
7 1 0.25 0.0685083 0.0484368
26 1 1 0.183377 0.057346
49 1 0.5 0.121395 0
55 1 0.75 0.0685083 0.0484368
74 1 0.5 0.183377 0.057346
2 1 0 0.318508 0.0484368
3 1 0.25 0.371395 0
28 1 0.25 0.236825 0.00868461
50 1 0.5 0.318508 0.0484368
51 1 0.75 0.371395 0
76 1 0.75 0.236825 0.00868461
25 1 0 0.486825 0.00868461
29 1 0.25 0.433377 0.057346
73 1 0.5 0.486825 0.00868461
77 1 0.75 0.433377 0.057346
103 1 0.25 0.568508 0.0484368
151 1 0.75 0.568508 0.0484368
97 1 0 0.621395 0
122 1 1 0.683377 0.057346
124 1 0.25 0.736825 0.00868461
145 1 0.5 0.621395 0
170 1 0.5 0.683377 0.057346
172 1 0.75 0.736825 0.00868461
98 1 1.50508e-16 0.818508 0.0484368
99 1 0.25 0.871395 0
121 1 0 0.986825 0.00868461
125 1 0.25 0.933377 0.057346
146 1 0.5 0.818508 0.0484368
147 1 0.75 0.871395 0
169 1 0.5 0.986825 0.00868461
173 1 0.75 0.933377 0.057346
4 1 0 0.00925805 0.101767
30 1 0 0.0667923 0.161964
33 1 0.25 0.125018 0.110301
52 1 0.5 0.00925805 0.101767
78 1 0.5 0.0667923 0.161964
81 1 0.75 0.125018 0.110301
5 1 0 0.201122 0.153394
53 1 0.5 0.201122 0.153394
8 1 0.25 0.259258 0.101767
27 1 0 0.375018 0.110301
34 1 0.25 0.316792 0.161964
56 1 0.75 0.259258 0.101767
75 1 0.5 0.375018 0.110301
82 1 0.75 0.316792 0.161964
9 1 0.25 0.451122 0.153394
57 1 0.75 0.451122 0.153394
100 1 1 0.509258 0.101767
126 1 0 0.566792 0.161964
148 1 0.5 0.509258 0.101767
174 1 0.5 0.566792 0.161964
101 1 0 0.701122 0.153394
104 1 0.25 0.759258 0.101767
129 1 0.25 0.625018 0.110301
149 1 0.5 0.701122 0.153394
152 1 0.75 0.759258 0.101767
177 1 0.75 0.625018 0.110301
105 1 0.25 0.951122 0.153394
123 1 2.18999e-17 0.875018 0.110301
130 1 0.25 0.816792 0.161964
153 1 0.75 0.951122 0.153394
171 1 0.5 0.875018 0.110301
178 1 0.75 0.816792 0.161964
10 1 1 0.0845017 0.257106
13 1 0.25 0.142759 0.206201
37 1 0.25 0.0084478 0.213824
58 1 0.5 0.0845017 0.257106
61 1 0.75 0.142759 0.206201
85 1 0.75 0.0084478 0.213824
38 1 0.25 0.200198 0.266172
86 1 0.75 0.200198 0.266172
6 1 1 0.392759 0.206201
14 1 0.25 0.334502 0.257106
31 1 2.09346e-16 0.258448 0.213824
54 1 0.5 0.392759 0.206201
62 1 0.75 0.334502 0.257106
79 1 0.5 0.258448 0.213824
32 1 0 0.450198 0.266172
80 1 0.5 0.450198 0.266172
106 1 1.50508e-16 0.584502 0.257106
133 1 0.25 0.508448 0.213824
154 1 0.5 0.584502 0.257106
181 1 0.75 0.508448 0.213824
109 1 0.25 0.642759 0.206201
127 1 1.46313e-17 0.758448 0.213824
134 1 0.25 0.700198 0.266172
157 1 0.75 0.642759 0.206201
175 1 0.5 0.758448 0.213824
182 1 0.75 0.700198 0.266172
102 1 0 0.892759 0.206201
110 1 0.25 0.834502 0.257106
128 1 1.50508e-16 0.950198 0.266172
150 1 0.5 0.892759 0.206201
158 1 0.75 0.834502 0.257106
176 1 0.5 0.950198 0.266172
17 1 0.316667 0.0928882 0.315638
65 1 0.816667 0.0928882 0.315638
35 1 0.0666667 0.208585 0.324705
83 1 0.566667 0.208585 0.324705
11 1 0.0666667 0.342888 0.315638
59 1 0.566667 0.342888 0.315638
39 1 0.316667 0.458585 0.324705
87 1 0.816667 0.458585 0.324705
113 1 0.316667 0.592888 0.315638
161 1 0.816667 0.592888 0.315638
131 1 0.0666667 0.708585 0.324705
179 1 0.566667 0.708585 0.324705
107 1 0.0666667 0.842888 0.315638
155 1 0.566667 0.842888 0.315638
135 1 0.316667 0.958585 0.324705
183 1 0.816667 0.958585 0.324705
40 1 0.0666667 0.0919648 0.428416
43 1 0.316667 0.150327 0.37561
88 1 0.566667 0.0919648 0.428416
91 1 0.816667 0.150327 0.37561
108 1 0.0666667 0.0346385 0.367986
156 1 0.566667 0.0346385 0.367986
15 1 0.0666667 0.226294 0.419846
63 1 0.566667 0.226294 0.419846
18 1 0.316667 0.284638 0.367986
44 1 0.316667 0.341965 0.428416
66 1 0.816667 0.284638 0.367986
92 1 0.816667 0.341965 0.428416
36 1 0.0666667 0.400327 0.37561
84 1 0.566667 0.400327 0.37561
12 1 0.0666667 0.534638 0.367986
19 1 0.316667 0.476294 0.419846
60 1 0.566667 0.534638 0.367986
67 1 0.816667 0.476294 0.419846
136 1 0.0666667 0.591965 0.428416
184 1 0.566667 0.591965 0.428416
139 1 0.316667 0.650327 0.37561
187 1 0.816667 0.650327 0.37561
111 1 0.0666667 0.726294 0.419846
114 1 0.316667 0.784638 0.367986
159 1 0.566667 0.726294 0.419846
162 1 0.816667 0.784638 0.367986
140 1 0.316667 0.841965 0.428416
188 1 0.816667 0.841965 0.428416
115 1 0.316667 0.976294 0.419846
132 1 0.0666667 0.900327 0.37561
163 1 0.816667 0.976294 0.419846
180 1 0.566667 0.900327 0.37561
20 1 0.0666667 0.10971 0.524464
24 1 0.316667 0.168068 0.471509
68 1 0.566667 0.10971 0.524464
72 1 0.816667 0.168068 0.471509
141 1 0.316667 0.0338284 0.480043
189 1 0.816667 0.0338284 0.480043
47 1 0.316667 0.224578 0.533374
95 1 0.816667 0.224578 0.533374
22 1 0.316667 0.35971 0.524464
41 1 0.0666667 0.283828 0.480043
70 1 0.816667 0.35971 0.524464
89 1 0.566667 0.283828 0.480043
16 1 0.0666667 0.418068 0.471509
64 1 0.566667 0.418068 0.471509
42 1 0.0666667 0.474578 0.533374
45 1 0.316667 0.533828 0.480043
90 1 0.566667 0.474578 0.533374
93 1 0.816667 0.533828 0.480043
116 1 0.0666667 0.60971 0.524464
164 1 0.566667 0.60971 0.524464
120 1 0.316667 0.668068 0.471509
137 1 0.0666667 0.783828 0.480043
143 1 0.316667 0.724578 0.533374
168 1 0.816667 0.668068 0.471509
185 1 0.566667 0.783828 0.480043
191 1 0.816667 0.724578 0.533374
118 1 0.316667 0.85971 0.524464
166 1 0.816667 0.85971 0.524464
112 1 0.0666667 0.918068 0.471509
138 1 0.0666667 0.974578 0.533374
160 1 0.566667 0.918068 0.471509
186 1 0.566667 0.974578 0.533374
46 1 0.0666667 0.171692 0.58181
94 1 0.566667 0.171692 0.58181
119 1 0.316667 0.0562617 0.573126
167 1 0.816667 0.0562617 0.573126
21 1 0.0666667 0.306262 0.573126
69 1 0.566667 0.306262 0.573126
48 1 0.316667 0.421692 0.58181
96 1 0.816667 0.421692 0.58181
23 1 0.316667 0.556262 0.573126
71 1 0.816667 0.556262 0.573126
142 1 0.0666667 0.671692 0.58181
190 1 0.566667 0.671692 0.58181
117 1 0.0666667 0.806262 0.573126
165 1 0.566667 0.806262 0.573126
144 1 0.316667 0.921692 0.58181
192 1 0.816667 0.921692 0.58181
