ITEM: TIMESTEP
232
ITEM: NUMBER OF ATOMS
192
ITEM: BOX BOUNDS pp pp pp
0.0000000000000000e+00 5.9011998176000002e+00
0.0000000000000000e+00 2.1324426539756200e+01
0.0000000000000000e+00 4.3042699813799999e+01
ITEM: ATOMS id type xs ys zs
1 1 0 0.121395 0
7 1 0.25 0.0685083 0.0488785
26 1 1 0.183377 0.0577523
49 1 0.5 0.121395 0
55 1 0.75 0.0685083 0.0488785
74 1 0.5 0.183377 0.0577523
2 1 0 0.318508 0.0488786
3 1 0.25 0.371395 0
28 1 0.25 0.236825 0.00868461
50 1 0.5 0.318508 0.0488786
51 1 0.75 0.371395 0
76 1 0.75 0.236825 0.00868461
25 1 0 0.486825 0.00868461
29 1 0.25 0.433377 0.0577523
73 1 0.5 0.486825 0.00868461
77 1 0.75 0.433377 0.0577523
103 1 0.25 0.568508 0.0488785
151 1 0.75 0.568508 0.0488785
97 1 0 0.621395 0
122 1 1 0.683377 0.0577523
124 1 0.25 0.736825 0.00868461
145 1 0.5 0.621395 0
170 1 0.5 0.683377 0.0577523
172 1 0.75 0.736825 0.00868461
98 1 1.50508e-16 0.818508 0.0488786
99 1 0.25 0.871395 0
121 1 0 0.986825 0.00868461
125 1 0.25 0.933377 0.0577523
146 1 0.5 0.818508 0.0488786
147 1 0.75 0.871395 0
169 1 0.5 0.986825 0.00868461
173 1 0.75 0.933377 0.0577523
4 1 0 0.00925805 0.102746
30 1 0 0.0667923 0.163309
33 1 0.25 0.125018 0.111161
52 1 0.5 0.00925805 0.102746
78 1 0.5 0.0667923 0.163309
81 1 0.75 0.125018 0.111161
5 1 0 0.201122 0.154811
53 1 0.5 0.201122 0.154811
8 1 0.25 0.259258 0.102746
27 1 0 0.375018 0.111161
34 1 0.25 0.316792 0.163309
56 1 0.75 0.259258 0.102746
75 1 0.5 0.375018 0.111161
82 1 0.75 0.316792 0.163309
9 1 0.25 0.451122 0.154811
57 1 0.75 0.451122 0.154811
100 1 1 0.509258 0.102746
126 1 0 0.566792 0.163309
148 1 0.5 0.509258 0.102746
174 1 0.5 0.566792 0.163309
101 1 0 0.701122 0.154811
104 1 0.25 0.759258 0.102746
129 1 0.25 0.625018 0.111161
149 1 0.5 0.701122 0.154811
152 1 0.75 0.759258 0.102746
177 1 0.75 0.625018 0.111161
105 1 0.25 0.951122 0.154811
123 1 2.18999e-17 0.875018 0.111161
130 1 0.25 0.816792 0.163309
153 1 0.75 0.951122 0.154811
171 1 0.5 0.875018 0.111161
178 1 0.75 0.816792 0.163309
10 1 1 0.0845017 0.260086
13 1 0.25 0.142759 0.207857
37 1 0.25 0.0084478 0.215976
58 1 0.5 0.0845017 0.260086
61 1 0.75 0.142759 0.207857
85 1 0.75 0.0084478 0.215976
38 1 0.25 0.200198 0.267261
86 1 0.75 0.200198 0.267261
6 1 1 0.392759 0.207857
14 1 0.25 0.334502 0.260086
31 1 2.09346e-16 0.258448 0.215976
54 1 0.5 0.392759 0.207857
62 1 0.75 0.334502 0.260086
79 1 0.5 0.258448 0.215976
32 1 0 0.450198 0.267261
80 1 0.5 0.450198 0.267261
106 1 1.50508e-16 0.584502 0.260086
133 1 0.25 0.508448 0.215976
154 1 0.5 0.584502 0.260086
181 1 0.75 0.508448 0.215976
109 1 0.25 0.642759 0.207857
127 1 1.46313e-17 0.758448 0.215976
134 1 0.25 0.700198 0.267261
157 1 0.75 0.642759 0.207857
175 1 0.5 0.758448 0.215976
182 1 0.75 0.700198 0.267261
102 1 0 0.892759 0.207857
110 1 0.25 0.834502 0.260086
128 1 1.50508e-16 0.950198 0.267261
150 1 0.5 0.892759 0.207857
158 1 0.75 0.834502 0.260086
176 1 0.5 0.950198 0.267261
135 1 0.483333 0.125251 0.321725
183 1 0.983333 0.125251 0.321725
107 1 0.233333 0.00955482 0.314549
155 1 0.733333 0.00955482 0.314549
17 1 0.483333 0.259555 0.314549
65 1 0.983333 0.259555 0.314549
35 1 0.233333 0.375251 0.321725
83 1 0.733333 0.375251 0.321725
11 1 0.233333 0.509555 0.314549
59 1 0.733333 0.509555 0.314549
39 1 0.483333 0.625251 0.321725
87 1 0.983333 0.625251 0.321725
113 1 0.483333 0.759555 0.314549
161 1 0.983333 0.759555 0.314549
131 1 0.233333 0.875251 0.321725
179 1 0.733333 0.875251 0.321725
115 1 0.483333 0.142961 0.418501
163 1 0.983333 0.142961 0.418501
132 1 0.233333 0.0669938 0.373953
180 1 0.733333 0.0669938 0.373953
140 1 0.483333 0.00863143 0.427
188 1 0.983333 0.00863143 0.427
108 1 0.233333 0.201305 0.365834
156 1 0.733333 0.201305 0.365834
40 1 0.233333 0.258631 0.427
88 1 0.733333 0.258631 0.427
43 1 0.483333 0.316994 0.373953
91 1 0.983333 0.316994 0.373953
15 1 0.233333 0.392961 0.418501
63 1 0.733333 0.392961 0.418501
18 1 0.483333 0.451305 0.365834
66 1 0.983333 0.451305 0.365834
44 1 0.483333 0.508631 0.427
92 1 0.983333 0.508631 0.427
36 1 0.233333 0.566994 0.373953
84 1 0.733333 0.566994 0.373953
19 1 0.483333 0.642961 0.418501
67 1 0.983333 0.642961 0.418501
12 1 0.233333 0.701305 0.365834
60 1 0.733333 0.701305 0.365834
136 1 0.233333 0.758631 0.427
184 1 0.733333 0.758631 0.427
139 1 0.483333 0.816994 0.373953
187 1 0.983333 0.816994 0.373953
111 1 0.233333 0.892961 0.418501
159 1 0.733333 0.892961 0.418501
114 1 0.483333 0.951305 0.365834
162 1 0.983333 0.951305 0.365834
138 1 0.233333 0.141245 0.532932
186 1 0.733333 0.141245 0.532932
112 1 0.233333 0.0847347 0.470649
160 1 0.733333 0.0847347 0.470649
118 1 0.483333 0.0263766 0.524058
166 1 0.983333 0.0263766 0.524058
141 1 0.483333 0.200495 0.479065
189 1 0.983333 0.200495 0.479065
20 1 0.233333 0.276377 0.524058
68 1 0.733333 0.276377 0.524058
24 1 0.483333 0.334735 0.470649
72 1 0.983333 0.334735 0.470649
47 1 0.483333 0.391245 0.532932
95 1 0.983333 0.391245 0.532932
41 1 0.233333 0.450495 0.479065
89 1 0.733333 0.450495 0.479065
22 1 0.483333 0.526377 0.524058
70 1 0.983333 0.526377 0.524058
16 1 0.233333 0.584735 0.470649
64 1 0.733333 0.584735 0.470649
42 1 0.233333 0.641245 0.532932
90 1 0.733333 0.641245 0.532932
45 1 0.483333 0.700495 0.479065
93 1 0.983333 0.700495 0.479065
116 1 0.233333 0.776377 0.524058
164 1 0.733333 0.776377 0.524058
120 1 0.483333 0.834735 0.470649
168 1 0.983333 0.834735 0.470649
143 1 0.483333 0.891245 0.532932
191 1 0.983333 0.891245 0.532932
137 1 0.233333 0.950495 0.479065
185 1 0.733333 0.950495 0.479065
144 1 0.483333 0.0883583 0.58181
192 1 0.983333 0.0883583 0.58181
119 1 0.483333 0.222928 0.573126
167 1 0.983333 0.222928 0.573126
46 1 0.233333 0.338358 0.58181
94 1 0.733333 0.338358 0.58181
21 1 0.233333 0.472928 0.573126
69 1 0.733333 0.472928 0.573126
48 1 0.483333 0.588358 0.58181
96 1 0.983333 0.588358 0.58181
23 1 0.483333 0.722928 0.573126
71 1 0.983333 0.722928 0.573126
142 1 0.233333 0.838358 0.58181
190 1 0.733333 0.838358 0.58181
117 1 0.233333 0.972928 0.573126
165 1 0.733333 0.972928 0.573126
