ITEM: TIMESTEP
167
ITEM: NUMBER OF ATOMS
192
ITEM: BOX BOUNDS pp pp pp
0.0000000000000000e+00 7.1176886540000002e+00
0.0000000000000000e+00 2.5858194780409800e+01
0.0000000000000000e+00 4.8301037599330101e+01
ITEM: ATOMS id type xs ys zs
1 1 0 0.121395 0
7 1 0.25 0.0650943 0.0443294
49 1 0.5 0.121395 0
55 1 0.75 0.0650943 0.0443294
2 1 3.36001e-17 0.315094 0.0443294
26 1 0 0.179996 0.0544639
28 1 0.25 0.236825 0.00919034
50 1 0.5 0.315094 0.0443294
74 1 0.5 0.179996 0.0544639
76 1 0.75 0.236825 0.00919034
3 1 0.25 0.371395 0
25 1 0 0.486825 0.00919034
29 1 0.25 0.429996 0.0544639
51 1 0.75 0.371395 0
73 1 0.5 0.486825 0.00919034
77 1 0.75 0.429996 0.0544639
97 1 0 0.621395 0
103 1 0.25 0.565094 0.0443294
145 1 0.5 0.621395 0
151 1 0.75 0.565094 0.0443294
98 1 3.56679e-17 0.815094 0.0443294
122 1 4.00817e-17 0.679996 0.0544639
124 1 0.25 0.736825 0.00919034
146 1 0.5 0.815094 0.0443294
170 1 0.5 0.679996 0.0544639
172 1 0.75 0.736825 0.00919034
99 1 0.25 0.871395 0
121 1 0 0.986825 0.00919034
125 1 0.25 0.929996 0.0544639
147 1 0.75 0.871395 0
169 1 0.5 0.986825 0.00919034
173 1 0.75 0.929996 0.0544639
4 1 0 0.00715404 0.0901215
33 1 0.25 0.122177 0.101208
52 1 0.5 0.00715404 0.0901215
81 1 0.75 0.122177 0.101208
30 1 3.41948e-17 0.0646243 0.147516
78 1 0.5 0.0646243 0.147516
5 1 1 0.199689 0.136465
8 1 0.25 0.257154 0.0901215
53 1 0.5 0.199689 0.136465
56 1 0.75 0.257154 0.0901215
34 1 0.25 0.314624 0.147516
82 1 0.75 0.314624 0.147516
9 1 0.25 0.449689 0.136465
27 1 0 0.372177 0.101208
57 1 0.75 0.449689 0.136465
75 1 0.5 0.372177 0.101208
100 1 1.04306e-17 0.507154 0.0901215
129 1 0.25 0.622177 0.101208
148 1 0.5 0.507154 0.0901215
177 1 0.75 0.622177 0.101208
126 1 0 0.564624 0.147516
174 1 0.5 0.564624 0.147516
101 1 0 0.699689 0.136465
104 1 0.25 0.757154 0.0901215
149 1 0.5 0.699689 0.136465
152 1 0.75 0.757154 0.0901215
130 1 0.25 0.814624 0.147516
178 1 0.75 0.814624 0.147516
105 1 0.25 0.949689 0.136465
123 1 1.74769e-17 0.872177 0.101208
153 1 0.75 0.949689 0.136465
171 1 0.5 0.872177 0.101208
13 1 0.25 0.142091 0.18314
37 1 0.25 0.00705467 0.193385
61 1 0.75 0.142091 0.18314
85 1 0.75 0.00705467 0.193385
10 1 0 0.0845159 0.228681
58 1 0.5 0.0845159 0.228681
31 1 4.88341e-17 0.257055 0.193385
79 1 0.5 0.257055 0.193385
38 1 0.25 0.199479 0.237565
86 1 0.75 0.199479 0.237565
6 1 0 0.392091 0.18314
54 1 0.5 0.392091 0.18314
14 1 0.25 0.334516 0.228681
32 1 0 0.449479 0.237565
62 1 0.75 0.334516 0.228681
80 1 0.5 0.449479 0.237565
109 1 0.25 0.642091 0.18314
133 1 0.25 0.507055 0.193385
157 1 0.75 0.642091 0.18314
181 1 0.75 0.507055 0.193385
106 1 0 0.584516 0.228681
154 1 0.5 0.584516 0.228681
127 1 4.16389e-17 0.757055 0.193385
175 1 0.5 0.757055 0.193385
134 1 0.25 0.699479 0.237565
182 1 0.75 0.699479 0.237565
102 1 7.3366e-17 0.892091 0.18314
150 1 0.5 0.892091 0.18314
110 1 0.25 0.834516 0.228681
128 1 1 0.949479 0.237565
158 1 0.75 0.834516 0.228681
176 1 0.5 0.949479 0.237565
17 1 0.375 0.151941 0.378126
65 1 0.875 0.151941 0.378126
135 1 0.375 0.0169037 0.38701
183 1 0.875 0.0169037 0.38701
35 1 0.125 0.266904 0.38701
83 1 0.625 0.266904 0.38701
11 1 0.125 0.401941 0.378126
59 1 0.625 0.401941 0.378126
39 1 0.375 0.516904 0.38701
87 1 0.875 0.516904 0.38701
113 1 0.375 0.651941 0.378126
161 1 0.875 0.651941 0.378126
131 1 0.125 0.766904 0.38701
179 1 0.625 0.766904 0.38701
107 1 0.125 0.901941 0.378126
155 1 0.625 0.901941 0.378126
108 1 0.125 0.0943649 0.422305
156 1 0.625 0.0943649 0.422305
40 1 0.125 0.151731 0.479226
88 1 0.625 0.151731 0.479226
115 1 0.375 0.0367953 0.468175
163 1 0.875 0.0367953 0.468175
43 1 0.375 0.209329 0.432551
91 1 0.875 0.209329 0.432551
15 1 0.125 0.286795 0.468175
63 1 0.625 0.286795 0.468175
18 1 0.375 0.344365 0.422305
66 1 0.875 0.344365 0.422305
44 1 0.375 0.401731 0.479226
92 1 0.875 0.401731 0.479226
36 1 0.125 0.459329 0.432551
84 1 0.625 0.459329 0.432551
19 1 0.375 0.536795 0.468175
67 1 0.875 0.536795 0.468175
12 1 0.125 0.594365 0.422305
60 1 0.625 0.594365 0.422305
136 1 0.125 0.651731 0.479226
184 1 0.625 0.651731 0.479226
139 1 0.375 0.709329 0.432551
187 1 0.875 0.709329 0.432551
111 1 0.125 0.786795 0.468175
159 1 0.625 0.786795 0.468175
114 1 0.375 0.844365 0.422305
162 1 0.875 0.844365 0.422305
140 1 0.375 0.901731 0.479226
188 1 0.875 0.901731 0.479226
132 1 0.125 0.959329 0.432551
180 1 0.625 0.959329 0.432551
141 1 0.375 0.0942657 0.525569
189 1 0.875 0.0942657 0.525569
138 1 0.125 0.0363256 0.571361
186 1 0.625 0.0363256 0.571361
20 1 0.125 0.171424 0.561227
68 1 0.625 0.171424 0.561227
24 1 0.375 0.229242 0.514483
72 1 0.875 0.229242 0.514483
47 1 0.375 0.286326 0.571361
95 1 0.875 0.286326 0.571361
41 1 0.125 0.344266 0.525569
89 1 0.625 0.344266 0.525569
16 1 0.125 0.479242 0.514483
64 1 0.625 0.479242 0.514483
22 1 0.375 0.421424 0.561227
70 1 0.875 0.421424 0.561227
42 1 0.125 0.536326 0.571361
90 1 0.625 0.536326 0.571361
45 1 0.375 0.594266 0.525569
93 1 0.875 0.594266 0.525569
116 1 0.125 0.671424 0.561227
164 1 0.625 0.671424 0.561227
120 1 0.375 0.729242 0.514483
168 1 0.875 0.729242 0.514483
143 1 0.375 0.786326 0.571361
191 1 0.875 0.786326 0.571361
137 1 0.125 0.844266 0.525569
185 1 0.625 0.844266 0.525569
112 1 0.125 0.979242 0.514483
160 1 0.625 0.979242 0.514483
118 1 0.375 0.921424 0.561227
166 1 0.875 0.921424 0.561227
119 1 0.375 0.114595 0.6065
167 1 0.875 0.114595 0.6065
46 1 0.125 0.230025 0.615691
94 1 0.625 0.230025 0.615691
21 1 0.125 0.364595 0.6065
69 1 0.625 0.364595 0.6065
48 1 0.375 0.480025 0.615691
96 1 0.875 0.480025 0.615691
23 1 0.375 0.614595 0.6065
71 1 0.875 0.614595 0.6065
142 1 0.125 0.730025 0.615691
190 1 0.625 0.730025 0.615691
117 1 0.125 0.864595 0.6065
165 1 0.625 0.864595 0.6065
144 1 0.375 0.980025 0.615691
192 1 0.875 0.980025 0.615691
