ITEM: TIMESTEP
21
ITEM: NUMBER OF ATOMS
192
ITEM: BOX BOUNDS pp pp pp
0.0000000000000000e+00 5.9011998176000002e+00
0.0000000000000000e+00 2.1324426539756200e+01
0.0000000000000000e+00 4.3042699813799999e+01
ITEM: ATOMS id type xs ys zs
1 1 0 0.121395 0
7 1 0.25 0.0685083 0.0489659
26 1 1 0.183377 0.0578294
49 1 0.5 0.121395 0
55 1 0.75 0.0685083 0.0489659
74 1 0.5 0.183377 0.0578294
2 1 0 0.318508 0.0489659
3 1 0.25 0.371395 0
28 1 0.25 0.236825 0.00868461
50 1 0.5 0.318508 0.0489659
51 1 0.75 0.371395 0
76 1 0.75 0.236825 0.00868461
25 1 0 0.486825 0.00868461
29 1 0.25 0.433377 0.0578294
73 1 0.5 0.486825 0.00868461
77 1 0.75 0.433377 0.0578294
103 1 0.25 0.568508 0.0489659
151 1 0.75 0.568508 0.0489659
97 1 0 0.621395 0
122 1 1 0.683377 0.0578294
124 1 0.25 0.736825 0.00868461
145 1 0.5 0.621395 0
170 1 0.5 0.683377 0.0578294
172 1 0.75 0.736825 0.00868461
98 1 1.50508e-16 0.818508 0.0489659
99 1 0.25 0.871395 0
121 1 0 0.986825 0.00868461
125 1 0.25 0.933377 0.0578294
146 1 0.5 0.818508 0.0489659
147 1 0.75 0.871395 0
169 1 0.5 0.986825 0.00868461
173 1 0.75 0.933377 0.0578294
4 1 0 0.00925805 0.102946
30 1 0 0.0667923 0.1636
33 1 0.25 0.125018 0.111341
52 1 0.5 0.00925805 0.102946
78 1 0.5 0.0667923 0.1636
81 1 0.75 0.125018 0.111341
5 1 0 0.201122 0.155136
53 1 0.5 0.201122 0.155136
8 1 0.25 0.259258 0.102946
27 1 0 0.375018 0.111341
34 1 0.25 0.316792 0.1636
56 1 0.75 0.259258 0.102946
75 1 0.5 0.375018 0.111341
82 1 0.75 0.316792 0.1636
9 1 0.25 0.451122 0.155136
57 1 0.75 0.451122 0.155136
100 1 1 0.509258 0.102946
126 1 0 0.566792 0.1636
148 1 0.5 0.509258 0.102946
174 1 0.5 0.566792 0.1636
101 1 0 0.701122 0.155136
104 1 0.25 0.759258 0.102946
129 1 0.25 0.625018 0.111341
149 1 0.5 0.701122 0.155136
152 1 0.75 0.759258 0.102946
177 1 0.75 0.625018 0.111341
105 1 0.25 0.951122 0.155136
123 1 2.18999e-17 0.875018 0.111341
130 1 0.25 0.816792 0.1636
153 1 0.75 0.951122 0.155136
171 1 0.5 0.875018 0.111341
178 1 0.75 0.816792 0.1636
10 1 1 0.0845017 0.260181
13 1 0.25 0.142759 0.207696
37 1 0.25 0.0084478 0.216132
58 1 0.5 0.0845017 0.260181
61 1 0.75 0.142759 0.207696
85 1 0.75 0.0084478 0.216132
38 1 0.25 0.200198 0.269019
86 1 0.75 0.200198 0.269019
6 1 1 0.392759 0.207696
14 1 0.25 0.334502 0.260181
31 1 2.09346e-16 0.258448 0.216132
54 1 0.5 0.392759 0.207696
62 1 0.75 0.334502 0.260181
79 1 0.5 0.258448 0.216132
32 1 0 0.450198 0.269019
80 1 0.5 0.450198 0.269019
106 1 1.50508e-16 0.584502 0.260181
133 1 0.25 0.508448 0.216132
154 1 0.5 0.584502 0.260181
181 1 0.75 0.508448 0.216132
109 1 0.25 0.642759 0.207696
127 1 1.46313e-17 0.758448 0.216132
134 1 0.25 0.700198 0.269019
157 1 0.75 0.642759 0.207696
175 1 0.5 0.758448 0.216132
182 1 0.75 0.700198 0.269019
102 1 0 0.892759 0.207696
110 1 0.25 0.834502 0.260181
128 1 1.50508e-16 0.950198 0.269019
150 1 0.5 0.892759 0.207696
158 1 0.75 0.834502 0.260181
176 1 0.5 0.950198 0.269019
17 1 0.258333 0.0345548 0.312791
35 1 0.00833333 0.150251 0.321629
65 1 0.758333 0.0345548 0.312791
83 1 0.508333 0.150251 0.321629
11 1 0.00833333 0.284555 0.312791
59 1 0.508333 0.284555 0.312791
39 1 0.258333 0.400251 0.321629
87 1 0.758333 0.400251 0.321629
113 1 0.258333 0.534555 0.312791
161 1 0.758333 0.534555 0.312791
107 1 0.00833333 0.784555 0.312791
131 1 0.00833333 0.650251 0.321629
155 1 0.508333 0.784555 0.312791
179 1 0.508333 0.650251 0.321629
135 1 0.258333 0.900251 0.321629
183 1 0.758333 0.900251 0.321629
15 1 0.00833333 0.167961 0.418211
40 1 0.00833333 0.0336314 0.426674
43 1 0.258333 0.0919938 0.374114
63 1 0.508333 0.167961 0.418211
88 1 0.508333 0.0336314 0.426674
91 1 0.758333 0.0919938 0.374114
18 1 0.258333 0.226305 0.365679
36 1 0.00833333 0.341994 0.374114
44 1 0.258333 0.283631 0.426674
66 1 0.758333 0.226305 0.365679
84 1 0.508333 0.341994 0.374114
92 1 0.758333 0.283631 0.426674
12 1 0.00833333 0.476305 0.365679
19 1 0.258333 0.417961 0.418211
60 1 0.508333 0.476305 0.365679
67 1 0.758333 0.417961 0.418211
136 1 0.00833333 0.533631 0.426674
139 1 0.258333 0.591994 0.374114
184 1 0.508333 0.533631 0.426674
187 1 0.758333 0.591994 0.374114
111 1 0.00833333 0.667961 0.418211
114 1 0.258333 0.726305 0.365679
140 1 0.258333 0.783631 0.426674
159 1 0.508333 0.667961 0.418211
162 1 0.758333 0.726305 0.365679
188 1 0.758333 0.783631 0.426674
108 1 0.00833333 0.976305 0.365679
115 1 0.258333 0.917961 0.418211
132 1 0.00833333 0.841994 0.374114
156 1 0.508333 0.976305 0.365679
163 1 0.758333 0.917961 0.418211
180 1 0.508333 0.841994 0.374114
20 1 0.00833333 0.0513766 0.523981
24 1 0.258333 0.109735 0.470469
47 1 0.258333 0.166245 0.532845
68 1 0.508333 0.0513766 0.523981
72 1 0.758333 0.109735 0.470469
95 1 0.758333 0.166245 0.532845
16 1 0.00833333 0.359735 0.470469
22 1 0.258333 0.301377 0.523981
41 1 0.00833333 0.225495 0.478865
64 1 0.508333 0.359735 0.470469
70 1 0.758333 0.301377 0.523981
89 1 0.508333 0.225495 0.478865
42 1 0.00833333 0.416245 0.532845
45 1 0.258333 0.475495 0.478865
90 1 0.508333 0.416245 0.532845
93 1 0.758333 0.475495 0.478865
116 1 0.00833333 0.551377 0.523981
164 1 0.508333 0.551377 0.523981
120 1 0.258333 0.609735 0.470469
137 1 0.00833333 0.725495 0.478865
143 1 0.258333 0.666245 0.532845
168 1 0.758333 0.609735 0.470469
185 1 0.508333 0.725495 0.478865
191 1 0.758333 0.666245 0.532845
118 1 0.258333 0.801377 0.523981
166 1 0.758333 0.801377 0.523981
112 1 0.00833333 0.859735 0.470469
138 1 0.00833333 0.916245 0.532845
141 1 0.258333 0.975495 0.478865
160 1 0.508333 0.859735 0.470469
186 1 0.508333 0.916245 0.532845
189 1 0.758333 0.975495 0.478865
46 1 0.00833333 0.113358 0.58181
94 1 0.508333 0.113358 0.58181
21 1 0.00833333 0.247928 0.573126
48 1 0.258333 0.363358 0.58181
69 1 0.508333 0.247928 0.573126
96 1 0.758333 0.363358 0.58181
23 1 0.258333 0.497928 0.573126
71 1 0.758333 0.497928 0.573126
117 1 0.00833333 0.747928 0.573126
142 1 0.00833333 0.613358 0.58181
165 1 0.508333 0.747928 0.573126
190 1 0.508333 0.613358 0.58181
119 1 0.258333 0.997928 0.573126
144 1 0.258333 0.863358 0.58181
167 1 0.758333 0.997928 0.573126
192 1 0.758333 0.863358 0.58181
