ITEM: TIMESTEP
118
ITEM: NUMBER OF ATOMS
192
ITEM: BOX BOUNDS pp pp pp
0.0000000000000000e+00 7.1176886540000002e+00
0.0000000000000000e+00 2.5858194780409800e+01
0.0000000000000000e+00 4.8301037599330101e+01
ITEM: ATOMS id type xs ys zs
1 1 0 0.121395 0
7 1 0.25 0.0650943 0.0442749
49 1 0.5 0.121395 0
55 1 0.75 0.0650943 0.0442749
2 1 3.36001e-17 0.315094 0.0442749
26 1 0 0.179996 0.0544318
28 1 0.25 0.236825 0.00919034
50 1 0.5 0.315094 0.0442749
74 1 0.5 0.179996 0.0544318
76 1 0.75 0.236825 0.00919034
3 1 0.25 0.371395 0
25 1 0 0.486825 0.00919034
29 1 0.25 0.429996 0.0544318
51 1 0.75 0.371395 0
73 1 0.5 0.486825 0.00919034
77 1 0.75 0.429996 0.0544318
97 1 0 0.621395 0
103 1 0.25 0.565094 0.0442749
145 1 0.5 0.621395 0
151 1 0.75 0.565094 0.0442749
98 1 3.56679e-17 0.815094 0.0442749
122 1 4.00817e-17 0.679996 0.0544318
124 1 0.25 0.736825 0.00919034
146 1 0.5 0.815094 0.0442749
170 1 0.5 0.679996 0.0544318
172 1 0.75 0.736825 0.00919034
99 1 0.25 0.871395 0
121 1 0 0.986825 0.00919034
125 1 0.25 0.929996 0.0544318
147 1 0.75 0.871395 0
169 1 0.5 0.986825 0.00919034
173 1 0.75 0.929996 0.0544318
4 1 0 0.00715404 0.0899815
33 1 0.25 0.122177 0.101096
52 1 0.5 0.00715404 0.0899815
81 1 0.75 0.122177 0.101096
30 1 3.41948e-17 0.0646243 0.147321
78 1 0.5 0.0646243 0.147321
5 1 1 0.199689 0.136246
8 1 0.25 0.257154 0.0899815
53 1 0.5 0.199689 0.136246
56 1 0.75 0.257154 0.0899815
34 1 0.25 0.314624 0.147321
82 1 0.75 0.314624 0.147321
9 1 0.25 0.449689 0.136246
27 1 0 0.372177 0.101096
57 1 0.75 0.449689 0.136246
75 1 0.5 0.372177 0.101096
100 1 1.04306e-17 0.507154 0.0899815
129 1 0.25 0.622177 0.101096
148 1 0.5 0.507154 0.0899815
177 1 0.75 0.622177 0.101096
126 1 0 0.564624 0.147321
174 1 0.5 0.564624 0.147321
101 1 0 0.699689 0.136246
104 1 0.25 0.757154 0.0899815
149 1 0.5 0.699689 0.136246
152 1 0.75 0.757154 0.0899815
130 1 0.25 0.814624 0.147321
178 1 0.75 0.814624 0.147321
105 1 0.25 0.949689 0.136246
123 1 1.74769e-17 0.872177 0.101096
153 1 0.75 0.949689 0.136246
171 1 0.5 0.872177 0.101096
13 1 0.25 0.142091 0.182839
37 1 0.25 0.00705467 0.193108
61 1 0.75 0.142091 0.182839
85 1 0.75 0.00705467 0.193108
10 1 0 0.0845159 0.22836
58 1 0.5 0.0845159 0.22836
31 1 4.88341e-17 0.257055 0.193108
79 1 0.5 0.257055 0.193108
38 1 0.25 0.199479 0.237226
86 1 0.75 0.199479 0.237226
6 1 0 0.392091 0.182839
54 1 0.5 0.392091 0.182839
14 1 0.25 0.334516 0.22836
32 1 0 0.449479 0.237226
62 1 0.75 0.334516 0.22836
80 1 0.5 0.449479 0.237226
109 1 0.25 0.642091 0.182839
133 1 0.25 0.507055 0.193108
157 1 0.75 0.642091 0.182839
181 1 0.75 0.507055 0.193108
106 1 0 0.584516 0.22836
154 1 0.5 0.584516 0.22836
127 1 4.16389e-17 0.757055 0.193108
175 1 0.5 0.757055 0.193108
134 1 0.25 0.699479 0.237226
182 1 0.75 0.699479 0.237226
102 1 7.3366e-17 0.892091 0.182839
150 1 0.5 0.892091 0.182839
110 1 0.25 0.834516 0.22836
128 1 1 0.949479 0.237226
158 1 0.75 0.834516 0.22836
176 1 0.5 0.949479 0.237226
17 1 0.316667 0.0936077 0.378465
65 1 0.816667 0.0936077 0.378465
35 1 0.0666667 0.20857 0.387331
83 1 0.566667 0.20857 0.387331
11 1 0.0666667 0.343608 0.378465
59 1 0.566667 0.343608 0.378465
39 1 0.316667 0.45857 0.387331
87 1 0.816667 0.45857 0.387331
113 1 0.316667 0.593608 0.378465
161 1 0.816667 0.593608 0.378465
131 1 0.0666667 0.70857 0.387331
179 1 0.566667 0.70857 0.387331
107 1 0.0666667 0.843608 0.378465
155 1 0.566667 0.843608 0.378465
135 1 0.316667 0.95857 0.387331
183 1 0.816667 0.95857 0.387331
43 1 0.316667 0.150995 0.432852
91 1 0.816667 0.150995 0.432852
108 1 0.0666667 0.0360316 0.422583
156 1 0.566667 0.0360316 0.422583
40 1 0.0666667 0.0933975 0.479445
88 1 0.566667 0.0933975 0.479445
18 1 0.316667 0.286032 0.422583
66 1 0.816667 0.286032 0.422583
15 1 0.0666667 0.228462 0.468369
63 1 0.566667 0.228462 0.468369
44 1 0.316667 0.343398 0.479445
92 1 0.816667 0.343398 0.479445
36 1 0.0666667 0.400995 0.432852
84 1 0.566667 0.400995 0.432852
19 1 0.316667 0.478462 0.468369
67 1 0.816667 0.478462 0.468369
12 1 0.0666667 0.536032 0.422583
60 1 0.566667 0.536032 0.422583
139 1 0.316667 0.650995 0.432852
187 1 0.816667 0.650995 0.432852
136 1 0.0666667 0.593398 0.479445
184 1 0.566667 0.593398 0.479445
114 1 0.316667 0.786032 0.422583
162 1 0.816667 0.786032 0.422583
111 1 0.0666667 0.728462 0.468369
159 1 0.566667 0.728462 0.468369
140 1 0.316667 0.843398 0.479445
188 1 0.816667 0.843398 0.479445
132 1 0.0666667 0.900995 0.432852
180 1 0.566667 0.900995 0.432852
115 1 0.316667 0.978462 0.468369
163 1 0.816667 0.978462 0.468369
20 1 0.0666667 0.113091 0.561259
68 1 0.566667 0.113091 0.561259
141 1 0.316667 0.0359324 0.525709
189 1 0.816667 0.0359324 0.525709
24 1 0.316667 0.170909 0.514594
72 1 0.816667 0.170909 0.514594
47 1 0.316667 0.227992 0.571416
95 1 0.816667 0.227992 0.571416
41 1 0.0666667 0.285932 0.525709
89 1 0.566667 0.285932 0.525709
16 1 0.0666667 0.420909 0.514594
64 1 0.566667 0.420909 0.514594
22 1 0.316667 0.363091 0.561259
70 1 0.816667 0.363091 0.561259
42 1 0.0666667 0.477992 0.571416
90 1 0.566667 0.477992 0.571416
45 1 0.316667 0.535932 0.525709
93 1 0.816667 0.535932 0.525709
116 1 0.0666667 0.613091 0.561259
164 1 0.566667 0.613091 0.561259
120 1 0.316667 0.670909 0.514594
168 1 0.816667 0.670909 0.514594
143 1 0.316667 0.727992 0.571416
191 1 0.816667 0.727992 0.571416
137 1 0.0666667 0.785932 0.525709
185 1 0.566667 0.785932 0.525709
112 1 0.0666667 0.920909 0.514594
160 1 0.566667 0.920909 0.514594
118 1 0.316667 0.863091 0.561259
166 1 0.816667 0.863091 0.561259
138 1 0.0666667 0.977992 0.571416
186 1 0.566667 0.977992 0.571416
119 1 0.316667 0.0562617 0.6065
167 1 0.816667 0.0562617 0.6065
46 1 0.0666667 0.171692 0.615691
94 1 0.566667 0.171692 0.615691
21 1 0.0666667 0.306262 0.6065
69 1 0.566667 0.306262 0.6065
48 1 0.316667 0.421692 0.615691
96 1 0.816667 0.421692 0.615691
23 1 0.316667 0.556262 0.6065
71 1 0.816667 0.556262 0.6065
142 1 0.0666667 0.671692 0.615691
190 1 0.566667 0.671692 0.615691
117 1 0.0666667 0.806262 0.6065
165 1 0.566667 0.806262 0.6065
144 1 0.316667 0.921692 0.615691
192 1 0.816667 0.921692 0.615691
