ITEM: TIMESTEP
205
ITEM: NUMBER OF ATOMS
192
ITEM: BOX BOUNDS pp pp pp
0.0000000000000000e+00 7.1176886540000002e+00
0.0000000000000000e+00 2.5858194780409800e+01
0.0000000000000000e+00 4.8301037599330101e+01
ITEM: ATOMS id type xs ys zs
1 1 0 0.121395 0
7 1 0.25 0.0650943 0.0443718
49 1 0.5 0.121395 0
55 1 0.75 0.0650943 0.0443718
2 1 3.36001e-17 0.315094 0.0443718
26 1 0 0.179996 0.0544894
28 1 0.25 0.236825 0.00919034
50 1 0.5 0.315094 0.0443718
74 1 0.5 0.179996 0.0544894
76 1 0.75 0.236825 0.00919034
3 1 0.25 0.371395 0
25 1 0 0.486825 0.00919034
29 1 0.25 0.429996 0.0544894
51 1 0.75 0.371395 0
73 1 0.5 0.486825 0.00919034
77 1 0.75 0.429996 0.0544894
97 1 0 0.621395 0
103 1 0.25 0.565094 0.0443718
145 1 0.5 0.621395 0
151 1 0.75 0.565094 0.0443718
98 1 3.56679e-17 0.815094 0.0443718
122 1 4.00817e-17 0.679996 0.0544894
124 1 0.25 0.736825 0.00919034
146 1 0.5 0.815094 0.0443718
170 1 0.5 0.679996 0.0544894
172 1 0.75 0.736825 0.00919034
99 1 0.25 0.871395 0
121 1 0 0.986825 0.00919034
125 1 0.25 0.929996 0.0544894
147 1 0.75 0.871395 0
169 1 0.5 0.986825 0.00919034
173 1 0.75 0.929996 0.0544894
4 1 0 0.00715404 0.0902296
33 1 0.25 0.122177 0.101295
52 1 0.5 0.00715404 0.0902296
81 1 0.75 0.122177 0.101295
30 1 3.41948e-17 0.0646243 0.147665
78 1 0.5 0.0646243 0.147665
5 1 1 0.199689 0.136632
8 1 0.25 0.257154 0.0902296
53 1 0.5 0.199689 0.136632
56 1 0.75 0.257154 0.0902296
34 1 0.25 0.314624 0.147665
82 1 0.75 0.314624 0.147665
9 1 0.25 0.449689 0.136632
27 1 0 0.372177 0.101295
57 1 0.75 0.449689 0.136632
75 1 0.5 0.372177 0.101295
100 1 1.04306e-17 0.507154 0.0902296
129 1 0.25 0.622177 0.101295
148 1 0.5 0.507154 0.0902296
177 1 0.75 0.622177 0.101295
126 1 0 0.564624 0.147665
174 1 0.5 0.564624 0.147665
101 1 0 0.699689 0.136632
104 1 0.25 0.757154 0.0902296
149 1 0.5 0.699689 0.136632
152 1 0.75 0.757154 0.0902296
130 1 0.25 0.814624 0.147665
178 1 0.75 0.814624 0.147665
105 1 0.25 0.949689 0.136632
123 1 1.74769e-17 0.872177 0.101295
153 1 0.75 0.949689 0.136632
171 1 0.5 0.872177 0.101295
13 1 0.25 0.142091 0.183369
37 1 0.25 0.00705467 0.193597
61 1 0.75 0.142091 0.183369
85 1 0.75 0.00705467 0.193597
10 1 0 0.0845159 0.228925
58 1 0.5 0.0845159 0.228925
31 1 4.88341e-17 0.257055 0.193597
79 1 0.5 0.257055 0.193597
38 1 0.25 0.199479 0.237826
86 1 0.75 0.199479 0.237826
6 1 0 0.392091 0.183369
54 1 0.5 0.392091 0.183369
14 1 0.25 0.334516 0.228925
32 1 0 0.449479 0.237826
62 1 0.75 0.334516 0.228925
80 1 0.5 0.449479 0.237826
109 1 0.25 0.642091 0.183369
133 1 0.25 0.507055 0.193597
157 1 0.75 0.642091 0.183369
181 1 0.75 0.507055 0.193597
106 1 0 0.584516 0.228925
154 1 0.5 0.584516 0.228925
127 1 4.16389e-17 0.757055 0.193597
175 1 0.5 0.757055 0.193597
134 1 0.25 0.699479 0.237826
182 1 0.75 0.699479 0.237826
102 1 7.3366e-17 0.892091 0.183369
150 1 0.5 0.892091 0.183369
110 1 0.25 0.834516 0.228925
128 1 1 0.949479 0.237826
158 1 0.75 0.834516 0.228925
176 1 0.5 0.949479 0.237826
135 1 0.416667 0.0585704 0.386765
183 1 0.916667 0.0585704 0.386765
17 1 0.416667 0.193608 0.377865
65 1 0.916667 0.193608 0.377865
35 1 0.166667 0.30857 0.386765
83 1 0.666667 0.30857 0.386765
11 1 0.166667 0.443608 0.377865
59 1 0.666667 0.443608 0.377865
39 1 0.416667 0.55857 0.386765
87 1 0.916667 0.55857 0.386765
113 1 0.416667 0.693608 0.377865
161 1 0.916667 0.693608 0.377865
131 1 0.166667 0.80857 0.386765
179 1 0.666667 0.80857 0.386765
107 1 0.166667 0.943608 0.377865
155 1 0.666667 0.943608 0.377865
108 1 0.166667 0.136032 0.422093
156 1 0.666667 0.136032 0.422093
115 1 0.416667 0.078462 0.468025
163 1 0.916667 0.078462 0.468025
132 1 0.166667 0.000995168 0.432321
180 1 0.666667 0.000995168 0.432321
40 1 0.166667 0.193398 0.479058
88 1 0.666667 0.193398 0.479058
43 1 0.416667 0.250995 0.432321
91 1 0.916667 0.250995 0.432321
15 1 0.166667 0.328462 0.468025
63 1 0.666667 0.328462 0.468025
18 1 0.416667 0.386032 0.422093
66 1 0.916667 0.386032 0.422093
44 1 0.416667 0.443398 0.479058
92 1 0.916667 0.443398 0.479058
36 1 0.166667 0.500995 0.432321
84 1 0.666667 0.500995 0.432321
19 1 0.416667 0.578462 0.468025
67 1 0.916667 0.578462 0.468025
12 1 0.166667 0.636032 0.422093
60 1 0.666667 0.636032 0.422093
136 1 0.166667 0.693398 0.479058
184 1 0.666667 0.693398 0.479058
139 1 0.416667 0.750995 0.432321
187 1 0.916667 0.750995 0.432321
111 1 0.166667 0.828462 0.468025
159 1 0.666667 0.828462 0.468025
114 1 0.416667 0.886032 0.422093
162 1 0.916667 0.886032 0.422093
140 1 0.416667 0.943398 0.479058
188 1 0.916667 0.943398 0.479058
141 1 0.416667 0.135932 0.525461
189 1 0.916667 0.135932 0.525461
138 1 0.166667 0.0779922 0.571319
186 1 0.666667 0.0779922 0.571319
112 1 0.166667 0.0209091 0.514396
160 1 0.666667 0.0209091 0.514396
20 1 0.166667 0.213091 0.561201
68 1 0.666667 0.213091 0.561201
24 1 0.416667 0.270909 0.514396
72 1 0.916667 0.270909 0.514396
47 1 0.416667 0.327992 0.571319
95 1 0.916667 0.327992 0.571319
41 1 0.166667 0.385932 0.525461
89 1 0.666667 0.385932 0.525461
22 1 0.416667 0.463091 0.561201
70 1 0.916667 0.463091 0.561201
16 1 0.166667 0.520909 0.514396
64 1 0.666667 0.520909 0.514396
42 1 0.166667 0.577992 0.571319
90 1 0.666667 0.577992 0.571319
45 1 0.416667 0.635932 0.525461
93 1 0.916667 0.635932 0.525461
116 1 0.166667 0.713091 0.561201
164 1 0.666667 0.713091 0.561201
120 1 0.416667 0.770909 0.514396
168 1 0.916667 0.770909 0.514396
143 1 0.416667 0.827992 0.571319
191 1 0.916667 0.827992 0.571319
137 1 0.166667 0.885932 0.525461
185 1 0.666667 0.885932 0.525461
118 1 0.416667 0.963091 0.561201
166 1 0.916667 0.963091 0.561201
119 1 0.416667 0.156262 0.6065
167 1 0.916667 0.156262 0.6065
144 1 0.416667 0.0216917 0.615691
192 1 0.916667 0.0216917 0.615691
46 1 0.166667 0.271692 0.615691
94 1 0.666667 0.271692 0.615691
21 1 0.166667 0.406262 0.6065
69 1 0.666667 0.406262 0.6065
48 1 0.416667 0.521692 0.615691
96 1 0.916667 0.521692 0.615691
23 1 0.416667 0.656262 0.6065
71 1 0.916667 0.656262 0.6065
142 1 0.166667 0.771692 0.615691
190 1 0.666667 0.771692 0.615691
117 1 0.166667 0.906262 0.6065
165 1 0.666667 0.906262 0.6065
