ITEM: TIMESTEP
29
ITEM: NUMBER OF ATOMS
192
ITEM: BOX BOUNDS pp pp pp
0.0000000000000000e+00 5.9011998176000002e+00
0.0000000000000000e+00 2.1324426539756200e+01
0.0000000000000000e+00 4.3042699813799999e+01
ITEM: ATOMS id type xs ys zs
1 1 0 0.121395 0
7 1 0.25 0.0685083 0.048913
26 1 1 0.183377 0.057783
49 1 0.5 0.121395 0
55 1 0.75 0.0685083 0.048913
74 1 0.5 0.183377 0.057783
2 1 0 0.318508 0.048913
3 1 0.25 0.371395 0
28 1 0.25 0.236825 0.00868461
50 1 0.5 0.318508 0.048913
51 1 0.75 0.371395 0
76 1 0.75 0.236825 0.00868461
25 1 0 0.486825 0.00868461
29 1 0.25 0.433377 0.057783
73 1 0.5 0.486825 0.00868461
77 1 0.75 0.433377 0.057783
103 1 0.25 0.568508 0.048913
151 1 0.75 0.568508 0.048913
97 1 0 0.621395 0
122 1 1 0.683377 0.057783
124 1 0.25 0.736825 0.00868461
145 1 0.5 0.621395 0
170 1 0.5 0.683377 0.057783
172 1 0.75 0.736825 0.00868461
98 1 1.50508e-16 0.818508 0.048913
99 1 0.25 0.871395 0
121 1 0 0.986825 0.00868461
125 1 0.25 0.933377 0.057783
146 1 0.5 0.818508 0.048913
147 1 0.75 0.871395 0
169 1 0.5 0.986825 0.00868461
173 1 0.75 0.933377 0.057783
4 1 0 0.00925805 0.10282
30 1 0 0.0667923 0.163433
33 1 0.25 0.125018 0.111235
52 1 0.5 0.00925805 0.10282
78 1 0.5 0.0667923 0.163433
81 1 0.75 0.125018 0.111235
5 1 0 0.201122 0.15497
53 1 0.5 0.201122 0.15497
8 1 0.25 0.259258 0.10282
27 1 0 0.375018 0.111235
34 1 0.25 0.316792 0.163433
56 1 0.75 0.259258 0.10282
75 1 0.5 0.375018 0.111235
82 1 0.75 0.316792 0.163433
9 1 0.25 0.451122 0.15497
57 1 0.75 0.451122 0.15497
100 1 1 0.509258 0.10282
126 1 0 0.566792 0.163433
148 1 0.5 0.509258 0.10282
174 1 0.5 0.566792 0.163433
101 1 0 0.701122 0.15497
104 1 0.25 0.759258 0.10282
129 1 0.25 0.625018 0.111235
149 1 0.5 0.701122 0.15497
152 1 0.75 0.759258 0.10282
177 1 0.75 0.625018 0.111235
105 1 0.25 0.951122 0.15497
123 1 2.18999e-17 0.875018 0.111235
130 1 0.25 0.816792 0.163433
153 1 0.75 0.951122 0.15497
171 1 0.5 0.875018 0.111235
178 1 0.75 0.816792 0.163433
10 1 1 0.0845017 0.259678
13 1 0.25 0.142759 0.20758
37 1 0.25 0.0084478 0.215835
58 1 0.5 0.0845017 0.259678
61 1 0.75 0.142759 0.20758
85 1 0.75 0.0084478 0.215835
38 1 0.25 0.200198 0.268714
86 1 0.75 0.200198 0.268714
6 1 1 0.392759 0.20758
14 1 0.25 0.334502 0.259678
31 1 2.09346e-16 0.258448 0.215835
54 1 0.5 0.392759 0.20758
62 1 0.75 0.334502 0.259678
79 1 0.5 0.258448 0.215835
32 1 0 0.450198 0.268714
80 1 0.5 0.450198 0.268714
106 1 1.50508e-16 0.584502 0.259678
133 1 0.25 0.508448 0.215835
154 1 0.5 0.584502 0.259678
181 1 0.75 0.508448 0.215835
109 1 0.25 0.642759 0.20758
127 1 1.46313e-17 0.758448 0.215835
134 1 0.25 0.700198 0.268714
157 1 0.75 0.642759 0.20758
175 1 0.5 0.758448 0.215835
182 1 0.75 0.700198 0.268714
102 1 0 0.892759 0.20758
110 1 0.25 0.834502 0.259678
128 1 1.50508e-16 0.950198 0.268714
150 1 0.5 0.892759 0.20758
158 1 0.75 0.834502 0.259678
176 1 0.5 0.950198 0.268714
17 1 0.266667 0.0428882 0.313097
35 1 0.0166667 0.158585 0.322132
65 1 0.766667 0.0428882 0.313097
83 1 0.516667 0.158585 0.322132
11 1 0.0166667 0.292888 0.313097
59 1 0.516667 0.292888 0.313097
39 1 0.266667 0.408585 0.322132
87 1 0.766667 0.408585 0.322132
113 1 0.266667 0.542888 0.313097
161 1 0.766667 0.542888 0.313097
107 1 0.0166667 0.792888 0.313097
131 1 0.0166667 0.658585 0.322132
155 1 0.516667 0.792888 0.313097
179 1 0.516667 0.658585 0.322132
135 1 0.266667 0.908585 0.322132
183 1 0.766667 0.908585 0.322132
15 1 0.0166667 0.176294 0.418377
40 1 0.0166667 0.0419648 0.42684
43 1 0.266667 0.100327 0.37423
63 1 0.516667 0.176294 0.418377
88 1 0.516667 0.0419648 0.42684
91 1 0.766667 0.100327 0.37423
18 1 0.266667 0.234638 0.365975
36 1 0.0166667 0.350327 0.37423
44 1 0.266667 0.291965 0.42684
66 1 0.766667 0.234638 0.365975
84 1 0.516667 0.350327 0.37423
92 1 0.766667 0.291965 0.42684
12 1 0.0166667 0.484638 0.365975
19 1 0.266667 0.426294 0.418377
60 1 0.516667 0.484638 0.365975
67 1 0.766667 0.426294 0.418377
136 1 0.0166667 0.541965 0.42684
184 1 0.516667 0.541965 0.42684
139 1 0.266667 0.600327 0.37423
187 1 0.766667 0.600327 0.37423
111 1 0.0166667 0.676294 0.418377
114 1 0.266667 0.734638 0.365975
140 1 0.266667 0.791965 0.42684
159 1 0.516667 0.676294 0.418377
162 1 0.766667 0.734638 0.365975
188 1 0.766667 0.791965 0.42684
108 1 0.0166667 0.984638 0.365975
115 1 0.266667 0.926294 0.418377
132 1 0.0166667 0.850327 0.37423
156 1 0.516667 0.984638 0.365975
163 1 0.766667 0.926294 0.418377
180 1 0.516667 0.850327 0.37423
20 1 0.0166667 0.0597099 0.524027
24 1 0.266667 0.118068 0.470576
47 1 0.266667 0.174578 0.532897
68 1 0.516667 0.0597099 0.524027
72 1 0.766667 0.118068 0.470576
95 1 0.766667 0.174578 0.532897
16 1 0.0166667 0.368068 0.470576
22 1 0.266667 0.30971 0.524027
41 1 0.0166667 0.233828 0.478991
64 1 0.516667 0.368068 0.470576
70 1 0.766667 0.30971 0.524027
89 1 0.516667 0.233828 0.478991
42 1 0.0166667 0.424578 0.532897
45 1 0.266667 0.483828 0.478991
90 1 0.516667 0.424578 0.532897
93 1 0.766667 0.483828 0.478991
116 1 0.0166667 0.55971 0.524027
164 1 0.516667 0.55971 0.524027
120 1 0.266667 0.618068 0.470576
137 1 0.0166667 0.733828 0.478991
143 1 0.266667 0.674578 0.532897
168 1 0.766667 0.618068 0.470576
185 1 0.516667 0.733828 0.478991
191 1 0.766667 0.674578 0.532897
118 1 0.266667 0.80971 0.524027
166 1 0.766667 0.80971 0.524027
112 1 0.0166667 0.868068 0.470576
138 1 0.0166667 0.924578 0.532897
141 1 0.266667 0.983828 0.478991
160 1 0.516667 0.868068 0.470576
186 1 0.516667 0.924578 0.532897
189 1 0.766667 0.983828 0.478991
46 1 0.0166667 0.121692 0.58181
94 1 0.516667 0.121692 0.58181
119 1 0.266667 0.00626166 0.573126
167 1 0.766667 0.00626166 0.573126
21 1 0.0166667 0.256262 0.573126
48 1 0.266667 0.371692 0.58181
69 1 0.516667 0.256262 0.573126
96 1 0.766667 0.371692 0.58181
23 1 0.266667 0.506262 0.573126
71 1 0.766667 0.506262 0.573126
117 1 0.0166667 0.756262 0.573126
142 1 0.0166667 0.621692 0.58181
165 1 0.516667 0.756262 0.573126
190 1 0.516667 0.621692 0.58181
144 1 0.266667 0.871692 0.58181
192 1 0.766667 0.871692 0.58181
