ITEM: TIMESTEP
25
ITEM: NUMBER OF ATOMS
192
ITEM: BOX BOUNDS pp pp pp
0.0000000000000000e+00 7.1176886540000002e+00
0.0000000000000000e+00 2.5858194780409800e+01
0.0000000000000000e+00 4.8301037599330101e+01
ITEM: ATOMS id type xs ys zs
1 1 0 0.121395 0
7 1 0.25 0.0650943 0.0539838
49 1 0.5 0.121395 0
55 1 0.75 0.0650943 0.0539838
2 1 3.36001e-17 0.315094 0.0539838
26 1 0 0.179996 0.0632886
28 1 0.25 0.236825 0.00919034
50 1 0.5 0.315094 0.0539838
74 1 0.5 0.179996 0.0632886
76 1 0.75 0.236825 0.00919034
3 1 0.25 0.371395 0
25 1 0 0.486825 0.00919034
29 1 0.25 0.429996 0.0632886
51 1 0.75 0.371395 0
73 1 0.5 0.486825 0.00919034
77 1 0.75 0.429996 0.0632886
97 1 0 0.621395 0
103 1 0.25 0.565094 0.0539838
145 1 0.5 0.621395 0
151 1 0.75 0.565094 0.0539838
98 1 3.56679e-17 0.815094 0.0539838
122 1 4.00817e-17 0.679996 0.0632886
124 1 0.25 0.736825 0.00919034
146 1 0.5 0.815094 0.0539838
170 1 0.5 0.679996 0.0632886
172 1 0.75 0.736825 0.00919034
99 1 0.25 0.871395 0
121 1 0 0.986825 0.00919034
125 1 0.25 0.929996 0.0632886
147 1 0.75 0.871395 0
169 1 0.5 0.986825 0.00919034
173 1 0.75 0.929996 0.0632886
4 1 0 0.00715404 0.109027
33 1 0.25 0.122177 0.118813
52 1 0.5 0.00715404 0.109027
81 1 0.75 0.122177 0.118813
5 1 1 0.199689 0.164325
8 1 0.25 0.257154 0.109027
53 1 0.5 0.199689 0.164325
56 1 0.75 0.257154 0.109027
9 1 0.25 0.449689 0.164325
27 1 0 0.372177 0.118813
57 1 0.75 0.449689 0.164325
75 1 0.5 0.372177 0.118813
100 1 1.04306e-17 0.507154 0.109027
129 1 0.25 0.622177 0.118813
148 1 0.5 0.507154 0.109027
177 1 0.75 0.622177 0.118813
101 1 0 0.699689 0.164325
104 1 0.25 0.757154 0.109027
149 1 0.5 0.699689 0.164325
152 1 0.75 0.757154 0.109027
105 1 0.25 0.949689 0.164325
123 1 1.74769e-17 0.872177 0.118813
153 1 0.75 0.949689 0.164325
171 1 0.5 0.872177 0.118813
13 1 0.25 0.142091 0.219579
30 1 3.41948e-17 0.0646243 0.173959
37 1 0.25 0.00705467 0.229007
61 1 0.75 0.142091 0.219579
78 1 0.5 0.0646243 0.173959
85 1 0.75 0.00705467 0.229007
31 1 4.88341e-17 0.257055 0.229007
34 1 0.25 0.314624 0.173959
79 1 0.5 0.257055 0.229007
82 1 0.75 0.314624 0.173959
6 1 0 0.392091 0.219579
54 1 0.5 0.392091 0.219579
109 1 0.25 0.642091 0.219579
126 1 0 0.564624 0.173959
133 1 0.25 0.507055 0.229007
157 1 0.75 0.642091 0.219579
174 1 0.5 0.564624 0.173959
181 1 0.75 0.507055 0.229007
127 1 4.16389e-17 0.757055 0.229007
130 1 0.25 0.814624 0.173959
175 1 0.5 0.757055 0.229007
178 1 0.75 0.814624 0.173959
102 1 7.3366e-17 0.892091 0.219579
150 1 0.5 0.892091 0.219579
10 1 0 0.0845159 0.274404
17 1 0.258333 0.0352743 0.3309
58 1 0.5 0.0845159 0.274404
65 1 0.758333 0.0352743 0.3309
11 1 0.00833333 0.285274 0.3309
38 1 0.25 0.199479 0.284791
59 1 0.508333 0.285274 0.3309
86 1 0.75 0.199479 0.284791
14 1 0.25 0.334516 0.274404
32 1 0 0.449479 0.284791
62 1 0.75 0.334516 0.274404
80 1 0.5 0.449479 0.284791
106 1 0 0.584516 0.274404
113 1 0.258333 0.535274 0.3309
154 1 0.5 0.584516 0.274404
161 1 0.758333 0.535274 0.3309
107 1 0.00833333 0.785274 0.3309
134 1 0.25 0.699479 0.284791
155 1 0.508333 0.785274 0.3309
182 1 0.75 0.699479 0.284791
110 1 0.25 0.834516 0.274404
128 1 1 0.949479 0.284791
158 1 0.75 0.834516 0.274404
176 1 0.5 0.949479 0.284791
35 1 0.00833333 0.150237 0.341287
43 1 0.258333 0.0926618 0.396111
83 1 0.508333 0.150237 0.341287
91 1 0.758333 0.0926618 0.396111
18 1 0.258333 0.227698 0.386684
66 1 0.758333 0.227698 0.386684
12 1 0.00833333 0.477698 0.386684
36 1 0.00833333 0.342662 0.396111
39 1 0.258333 0.400237 0.341287
60 1 0.508333 0.477698 0.386684
84 1 0.508333 0.342662 0.396111
87 1 0.758333 0.400237 0.341287
131 1 0.00833333 0.650237 0.341287
139 1 0.258333 0.592662 0.396111
179 1 0.508333 0.650237 0.341287
187 1 0.758333 0.592662 0.396111
114 1 0.258333 0.727698 0.386684
162 1 0.758333 0.727698 0.386684
108 1 0.00833333 0.977698 0.386684
132 1 0.00833333 0.842662 0.396111
135 1 0.258333 0.900237 0.341287
156 1 0.508333 0.977698 0.386684
180 1 0.508333 0.842662 0.396111
183 1 0.758333 0.900237 0.341287
24 1 0.258333 0.112576 0.496878
40 1 0.00833333 0.0350642 0.451366
72 1 0.758333 0.112576 0.496878
88 1 0.508333 0.0350642 0.451366
15 1 0.00833333 0.170129 0.441732
63 1 0.508333 0.170129 0.441732
44 1 0.258333 0.285064 0.451366
92 1 0.758333 0.285064 0.451366
16 1 0.00833333 0.362576 0.496878
19 1 0.258333 0.420129 0.441732
64 1 0.508333 0.362576 0.496878
67 1 0.758333 0.420129 0.441732
120 1 0.258333 0.612576 0.496878
136 1 0.00833333 0.535064 0.451366
168 1 0.758333 0.612576 0.496878
184 1 0.508333 0.535064 0.451366
111 1 0.00833333 0.670129 0.441732
159 1 0.508333 0.670129 0.441732
140 1 0.258333 0.785064 0.451366
188 1 0.758333 0.785064 0.451366
112 1 0.00833333 0.862576 0.496878
115 1 0.258333 0.920129 0.441732
160 1 0.508333 0.862576 0.496878
163 1 0.758333 0.920129 0.441732
20 1 0.00833333 0.0547573 0.552402
68 1 0.508333 0.0547573 0.552402
47 1 0.258333 0.169659 0.561707
95 1 0.758333 0.169659 0.561707
22 1 0.258333 0.304757 0.552402
41 1 0.00833333 0.227599 0.506663
70 1 0.758333 0.304757 0.552402
89 1 0.508333 0.227599 0.506663
42 1 0.00833333 0.419659 0.561707
45 1 0.258333 0.477599 0.506663
90 1 0.508333 0.419659 0.561707
93 1 0.758333 0.477599 0.506663
116 1 0.00833333 0.554757 0.552402
164 1 0.508333 0.554757 0.552402
143 1 0.258333 0.669659 0.561707
191 1 0.758333 0.669659 0.561707
118 1 0.258333 0.804757 0.552402
137 1 0.00833333 0.727599 0.506663
166 1 0.758333 0.804757 0.552402
185 1 0.508333 0.727599 0.506663
138 1 0.00833333 0.919659 0.561707
141 1 0.258333 0.977599 0.506663
186 1 0.508333 0.919659 0.561707
189 1 0.758333 0.977599 0.506663
46 1 0.00833333 0.113358 0.615691
94 1 0.508333 0.113358 0.615691
21 1 0.00833333 0.247928 0.6065
69 1 0.508333 0.247928 0.6065
23 1 0.258333 0.497928 0.6065
48 1 0.258333 0.363358 0.615691
71 1 0.758333 0.497928 0.6065
96 1 0.758333 0.363358 0.615691
142 1 0.00833333 0.613358 0.615691
190 1 0.508333 0.613358 0.615691
117 1 0.00833333 0.747928 0.6065
165 1 0.508333 0.747928 0.6065
119 1 0.258333 0.997928 0.6065
144 1 0.258333 0.863358 0.615691
167 1 0.758333 0.997928 0.6065
192 1 0.758333 0.863358 0.615691
