ITEM: TIMESTEP
171
ITEM: NUMBER OF ATOMS
192
ITEM: BOX BOUNDS pp pp pp
0.0000000000000000e+00 5.9011998176000002e+00
0.0000000000000000e+00 2.1324426539756200e+01
0.0000000000000000e+00 4.3042699813799999e+01
ITEM: ATOMS id type xs ys zs
1 1 0 0.121395 0
7 1 0.25 0.0685083 0.048335
26 1 1 0.183377 0.0572459
49 1 0.5 0.121395 0
55 1 0.75 0.0685083 0.048335
74 1 0.5 0.183377 0.0572459
2 1 0 0.318508 0.048335
3 1 0.25 0.371395 0
28 1 0.25 0.236825 0.00868461
50 1 0.5 0.318508 0.048335
51 1 0.75 0.371395 0
76 1 0.75 0.236825 0.00868461
25 1 0 0.486825 0.00868461
29 1 0.25 0.433377 0.0572459
73 1 0.5 0.486825 0.00868461
77 1 0.75 0.433377 0.0572459
103 1 0.25 0.568508 0.048335
151 1 0.75 0.568508 0.048335
97 1 0 0.621395 0
122 1 1 0.683377 0.0572459
124 1 0.25 0.736825 0.00868461
145 1 0.5 0.621395 0
170 1 0.5 0.683377 0.0572459
172 1 0.75 0.736825 0.00868461
98 1 1.50508e-16 0.818508 0.048335
99 1 0.25 0.871395 0
121 1 0 0.986825 0.00868461
125 1 0.25 0.933377 0.0572459
146 1 0.5 0.818508 0.048335
147 1 0.75 0.871395 0
169 1 0.5 0.986825 0.00868461
173 1 0.75 0.933377 0.0572459
4 1 0 0.00925805 0.10154
30 1 0 0.0667923 0.161498
33 1 0.25 0.125018 0.110098
52 1 0.5 0.00925805 0.10154
78 1 0.5 0.0667923 0.161498
81 1 0.75 0.125018 0.110098
5 1 0 0.201122 0.153162
53 1 0.5 0.201122 0.153162
8 1 0.25 0.259258 0.10154
27 1 0 0.375018 0.110098
34 1 0.25 0.316792 0.161498
56 1 0.75 0.259258 0.10154
75 1 0.5 0.375018 0.110098
82 1 0.75 0.316792 0.161498
9 1 0.25 0.451122 0.153162
57 1 0.75 0.451122 0.153162
100 1 1 0.509258 0.10154
126 1 0 0.566792 0.161498
148 1 0.5 0.509258 0.10154
174 1 0.5 0.566792 0.161498
101 1 0 0.701122 0.153162
104 1 0.25 0.759258 0.10154
129 1 0.25 0.625018 0.110098
149 1 0.5 0.701122 0.153162
152 1 0.75 0.759258 0.10154
177 1 0.75 0.625018 0.110098
105 1 0.25 0.951122 0.153162
123 1 2.18999e-17 0.875018 0.110098
130 1 0.25 0.816792 0.161498
153 1 0.75 0.951122 0.153162
171 1 0.5 0.875018 0.110098
178 1 0.75 0.816792 0.161498
10 1 1 0.0845017 0.258836
13 1 0.25 0.142759 0.205974
37 1 0.25 0.0084478 0.213653
58 1 0.5 0.0845017 0.258836
61 1 0.75 0.142759 0.205974
85 1 0.75 0.0084478 0.213653
38 1 0.25 0.200198 0.263101
86 1 0.75 0.200198 0.263101
6 1 1 0.392759 0.205974
14 1 0.25 0.334502 0.258836
31 1 2.09346e-16 0.258448 0.213653
54 1 0.5 0.392759 0.205974
62 1 0.75 0.334502 0.258836
79 1 0.5 0.258448 0.213653
32 1 0 0.450198 0.263101
80 1 0.5 0.450198 0.263101
106 1 1.50508e-16 0.584502 0.258836
133 1 0.25 0.508448 0.213653
154 1 0.5 0.584502 0.258836
181 1 0.75 0.508448 0.213653
109 1 0.25 0.642759 0.205974
127 1 1.46313e-17 0.758448 0.213653
134 1 0.25 0.700198 0.263101
157 1 0.75 0.642759 0.205974
175 1 0.5 0.758448 0.213653
182 1 0.75 0.700198 0.263101
102 1 0 0.892759 0.205974
110 1 0.25 0.834502 0.258836
128 1 1.50508e-16 0.950198 0.263101
150 1 0.5 0.892759 0.205974
158 1 0.75 0.834502 0.258836
176 1 0.5 0.950198 0.263101
135 1 0.425 0.0669178 0.322974
183 1 0.925 0.0669178 0.322974
17 1 0.425 0.201221 0.318709
65 1 0.925 0.201221 0.318709
35 1 0.175 0.316918 0.322974
83 1 0.675 0.316918 0.322974
11 1 0.175 0.451221 0.318709
59 1 0.675 0.451221 0.318709
39 1 0.425 0.566918 0.322974
87 1 0.925 0.566918 0.322974
113 1 0.425 0.701221 0.318709
161 1 0.925 0.701221 0.318709
131 1 0.175 0.816918 0.322974
179 1 0.675 0.816918 0.322974
107 1 0.175 0.951221 0.318709
155 1 0.675 0.951221 0.318709
108 1 0.175 0.142972 0.368157
156 1 0.675 0.142972 0.368157
115 1 0.425 0.0846273 0.420313
163 1 0.925 0.0846273 0.420313
132 1 0.175 0.0086605 0.375836
180 1 0.675 0.0086605 0.375836
40 1 0.175 0.200298 0.428649
88 1 0.675 0.200298 0.428649
43 1 0.425 0.25866 0.375836
91 1 0.925 0.25866 0.375836
15 1 0.175 0.334627 0.420313
63 1 0.675 0.334627 0.420313
18 1 0.425 0.392972 0.368157
66 1 0.925 0.392972 0.368157
44 1 0.425 0.450298 0.428649
92 1 0.925 0.450298 0.428649
36 1 0.175 0.50866 0.375836
84 1 0.675 0.50866 0.375836
19 1 0.425 0.584627 0.420313
67 1 0.925 0.584627 0.420313
12 1 0.175 0.642972 0.368157
60 1 0.675 0.642972 0.368157
136 1 0.175 0.700298 0.428649
184 1 0.675 0.700298 0.428649
139 1 0.425 0.75866 0.375836
187 1 0.925 0.75866 0.375836
111 1 0.175 0.834627 0.420313
159 1 0.675 0.834627 0.420313
114 1 0.425 0.892972 0.368157
162 1 0.925 0.892972 0.368157
140 1 0.425 0.950298 0.428649
188 1 0.925 0.950298 0.428649
141 1 0.425 0.142162 0.480271
189 1 0.925 0.142162 0.480271
138 1 0.175 0.0829116 0.533475
186 1 0.675 0.0829116 0.533475
112 1 0.175 0.0264013 0.471713
160 1 0.675 0.0264013 0.471713
20 1 0.175 0.218043 0.524565
68 1 0.675 0.218043 0.524565
24 1 0.425 0.276401 0.471713
72 1 0.925 0.276401 0.471713
47 1 0.425 0.332912 0.533475
95 1 0.925 0.332912 0.533475
41 1 0.175 0.392162 0.480271
89 1 0.675 0.392162 0.480271
22 1 0.425 0.468043 0.524565
70 1 0.925 0.468043 0.524565
16 1 0.175 0.526401 0.471713
64 1 0.675 0.526401 0.471713
42 1 0.175 0.582912 0.533475
90 1 0.675 0.582912 0.533475
45 1 0.425 0.642162 0.480271
93 1 0.925 0.642162 0.480271
116 1 0.175 0.718043 0.524565
164 1 0.675 0.718043 0.524565
120 1 0.425 0.776401 0.471713
168 1 0.925 0.776401 0.471713
143 1 0.425 0.832912 0.533475
191 1 0.925 0.832912 0.533475
137 1 0.175 0.892162 0.480271
185 1 0.675 0.892162 0.480271
118 1 0.425 0.968043 0.524565
166 1 0.925 0.968043 0.524565
119 1 0.425 0.164595 0.573126
167 1 0.925 0.164595 0.573126
144 1 0.425 0.030025 0.58181
192 1 0.925 0.030025 0.58181
46 1 0.175 0.280025 0.58181
94 1 0.675 0.280025 0.58181
21 1 0.175 0.414595 0.573126
69 1 0.675 0.414595 0.573126
48 1 0.425 0.530025 0.58181
96 1 0.925 0.530025 0.58181
23 1 0.425 0.664595 0.573126
71 1 0.925 0.664595 0.573126
142 1 0.175 0.780025 0.58181
190 1 0.675 0.780025 0.58181
117 1 0.175 0.914595 0.573126
165 1 0.675 0.914595 0.573126
