ITEM: TIMESTEP
110
ITEM: NUMBER OF ATOMS
192
ITEM: BOX BOUNDS pp pp pp
0.0000000000000000e+00 7.1176886540000002e+00
0.0000000000000000e+00 2.5858194780409800e+01
0.0000000000000000e+00 4.8301037599330101e+01
ITEM: ATOMS id type xs ys zs
1 1 0 0.121395 0
7 1 0.25 0.0650943 0.0442773
49 1 0.5 0.121395 0
55 1 0.75 0.0650943 0.0442773
2 1 3.36001e-17 0.315094 0.0442773
26 1 0 0.179996 0.0544332
28 1 0.25 0.236825 0.00919034
50 1 0.5 0.315094 0.0442773
74 1 0.5 0.179996 0.0544332
76 1 0.75 0.236825 0.00919034
3 1 0.25 0.371395 0
25 1 0 0.486825 0.00919034
29 1 0.25 0.429996 0.0544332
51 1 0.75 0.371395 0
73 1 0.5 0.486825 0.00919034
77 1 0.75 0.429996 0.0544332
97 1 0 0.621395 0
103 1 0.25 0.565094 0.0442773
145 1 0.5 0.621395 0
151 1 0.75 0.565094 0.0442773
98 1 3.56679e-17 0.815094 0.0442773
122 1 4.00817e-17 0.679996 0.0544332
124 1 0.25 0.736825 0.00919034
146 1 0.5 0.815094 0.0442773
170 1 0.5 0.679996 0.0544332
172 1 0.75 0.736825 0.00919034
99 1 0.25 0.871395 0
121 1 0 0.986825 0.00919034
125 1 0.25 0.929996 0.0544332
147 1 0.75 0.871395 0
169 1 0.5 0.986825 0.00919034
173 1 0.75 0.929996 0.0544332
4 1 0 0.00715404 0.089988
33 1 0.25 0.122177 0.101101
52 1 0.5 0.00715404 0.089988
81 1 0.75 0.122177 0.101101
5 1 1 0.199689 0.136255
8 1 0.25 0.257154 0.089988
53 1 0.5 0.199689 0.136255
56 1 0.75 0.257154 0.089988
9 1 0.25 0.449689 0.136255
27 1 0 0.372177 0.101101
57 1 0.75 0.449689 0.136255
75 1 0.5 0.372177 0.101101
100 1 1.04306e-17 0.507154 0.089988
129 1 0.25 0.622177 0.101101
148 1 0.5 0.507154 0.089988
177 1 0.75 0.622177 0.101101
101 1 0 0.699689 0.136255
104 1 0.25 0.757154 0.089988
149 1 0.5 0.699689 0.136255
152 1 0.75 0.757154 0.089988
105 1 0.25 0.949689 0.136255
123 1 1.74769e-17 0.872177 0.101101
153 1 0.75 0.949689 0.136255
171 1 0.5 0.872177 0.101101
13 1 0.25 0.142091 0.182852
30 1 3.41948e-17 0.0646243 0.14733
37 1 0.25 0.00705467 0.19312
61 1 0.75 0.142091 0.182852
78 1 0.5 0.0646243 0.14733
85 1 0.75 0.00705467 0.19312
31 1 4.88341e-17 0.257055 0.19312
34 1 0.25 0.314624 0.14733
79 1 0.5 0.257055 0.19312
82 1 0.75 0.314624 0.14733
6 1 0 0.392091 0.182852
54 1 0.5 0.392091 0.182852
109 1 0.25 0.642091 0.182852
126 1 0 0.564624 0.14733
133 1 0.25 0.507055 0.19312
157 1 0.75 0.642091 0.182852
174 1 0.5 0.564624 0.14733
181 1 0.75 0.507055 0.19312
127 1 4.16389e-17 0.757055 0.19312
130 1 0.25 0.814624 0.14733
175 1 0.5 0.757055 0.19312
178 1 0.75 0.814624 0.14733
102 1 7.3366e-17 0.892091 0.182852
150 1 0.5 0.892091 0.182852
10 1 0 0.0845159 0.228374
58 1 0.5 0.0845159 0.228374
38 1 0.25 0.199479 0.237241
86 1 0.75 0.199479 0.237241
14 1 0.25 0.334516 0.228374
32 1 0 0.449479 0.237241
62 1 0.75 0.334516 0.228374
80 1 0.5 0.449479 0.237241
106 1 0 0.584516 0.228374
154 1 0.5 0.584516 0.228374
134 1 0.25 0.699479 0.237241
182 1 0.75 0.699479 0.237241
110 1 0.25 0.834516 0.228374
128 1 1 0.949479 0.237241
158 1 0.75 0.834516 0.228374
176 1 0.5 0.949479 0.237241
17 1 0.291667 0.0686077 0.378449
65 1 0.791667 0.0686077 0.378449
43 1 0.291667 0.125995 0.432839
91 1 0.791667 0.125995 0.432839
108 1 0.0416667 0.0110316 0.42257
156 1 0.541667 0.0110316 0.42257
11 1 0.0416667 0.318608 0.378449
59 1 0.541667 0.318608 0.378449
35 1 0.0416667 0.18357 0.387317
83 1 0.541667 0.18357 0.387317
18 1 0.291667 0.261032 0.42257
66 1 0.791667 0.261032 0.42257
36 1 0.0416667 0.375995 0.432839
39 1 0.291667 0.43357 0.387317
84 1 0.541667 0.375995 0.432839
87 1 0.791667 0.43357 0.387317
113 1 0.291667 0.568608 0.378449
161 1 0.791667 0.568608 0.378449
12 1 0.0416667 0.511032 0.42257
60 1 0.541667 0.511032 0.42257
139 1 0.291667 0.625995 0.432839
187 1 0.791667 0.625995 0.432839
107 1 0.0416667 0.818608 0.378449
155 1 0.541667 0.818608 0.378449
131 1 0.0416667 0.68357 0.387317
179 1 0.541667 0.68357 0.387317
114 1 0.291667 0.761032 0.42257
162 1 0.791667 0.761032 0.42257
132 1 0.0416667 0.875995 0.432839
135 1 0.291667 0.93357 0.387317
180 1 0.541667 0.875995 0.432839
183 1 0.791667 0.93357 0.387317
24 1 0.291667 0.145909 0.514589
40 1 0.0416667 0.0683975 0.479435
72 1 0.791667 0.145909 0.514589
88 1 0.541667 0.0683975 0.479435
15 1 0.0416667 0.203462 0.468361
63 1 0.541667 0.203462 0.468361
44 1 0.291667 0.318398 0.479435
92 1 0.791667 0.318398 0.479435
16 1 0.0416667 0.395909 0.514589
19 1 0.291667 0.453462 0.468361
64 1 0.541667 0.395909 0.514589
67 1 0.791667 0.453462 0.468361
120 1 0.291667 0.645909 0.514589
136 1 0.0416667 0.568398 0.479435
168 1 0.791667 0.645909 0.514589
184 1 0.541667 0.568398 0.479435
111 1 0.0416667 0.703462 0.468361
159 1 0.541667 0.703462 0.468361
140 1 0.291667 0.818398 0.479435
188 1 0.791667 0.818398 0.479435
112 1 0.0416667 0.895909 0.514589
115 1 0.291667 0.953462 0.468361
160 1 0.541667 0.895909 0.514589
163 1 0.791667 0.953462 0.468361
20 1 0.0416667 0.0880906 0.561257
68 1 0.541667 0.0880906 0.561257
141 1 0.291667 0.0109324 0.525703
189 1 0.791667 0.0109324 0.525703
47 1 0.291667 0.202992 0.571413
95 1 0.791667 0.202992 0.571413
41 1 0.0416667 0.260932 0.525703
89 1 0.541667 0.260932 0.525703
22 1 0.291667 0.338091 0.561257
70 1 0.791667 0.338091 0.561257
42 1 0.0416667 0.452992 0.571413
90 1 0.541667 0.452992 0.571413
45 1 0.291667 0.510932 0.525703
93 1 0.791667 0.510932 0.525703
116 1 0.0416667 0.588091 0.561257
164 1 0.541667 0.588091 0.561257
143 1 0.291667 0.702992 0.571413
191 1 0.791667 0.702992 0.571413
137 1 0.0416667 0.760932 0.525703
185 1 0.541667 0.760932 0.525703
118 1 0.291667 0.838091 0.561257
166 1 0.791667 0.838091 0.561257
138 1 0.0416667 0.952992 0.571413
186 1 0.541667 0.952992 0.571413
46 1 0.0416667 0.146692 0.615691
94 1 0.541667 0.146692 0.615691
119 1 0.291667 0.0312617 0.6065
167 1 0.791667 0.0312617 0.6065
21 1 0.0416667 0.281262 0.6065
69 1 0.541667 0.281262 0.6065
48 1 0.291667 0.396692 0.615691
96 1 0.791667 0.396692 0.615691
23 1 0.291667 0.531262 0.6065
71 1 0.791667 0.531262 0.6065
142 1 0.0416667 0.646692 0.615691
190 1 0.541667 0.646692 0.615691
117 1 0.0416667 0.781262 0.6065
165 1 0.541667 0.781262 0.6065
144 1 0.291667 0.896692 0.615691
192 1 0.791667 0.896692 0.615691
