ITEM: TIMESTEP
214
ITEM: NUMBER OF ATOMS
192
ITEM: BOX BOUNDS pp pp pp
0.0000000000000000e+00 7.1176886540000002e+00
0.0000000000000000e+00 2.5858194780409800e+01
0.0000000000000000e+00 4.8301037599330101e+01
ITEM: ATOMS id type xs ys zs
1 1 0 0.121395 0
7 1 0.25 0.0650943 0.0443619
49 1 0.5 0.121395 0
55 1 0.75 0.0650943 0.0443619
2 1 3.36001e-17 0.315094 0.0443619
26 1 0 0.179996 0.0544834
28 1 0.25 0.236825 0.00919034
50 1 0.5 0.315094 0.0443619
74 1 0.5 0.179996 0.0544834
76 1 0.75 0.236825 0.00919034
3 1 0.25 0.371395 0
25 1 0 0.486825 0.00919034
29 1 0.25 0.429996 0.0544834
51 1 0.75 0.371395 0
73 1 0.5 0.486825 0.00919034
77 1 0.75 0.429996 0.0544834
97 1 0 0.621395 0
103 1 0.25 0.565094 0.0443619
145 1 0.5 0.621395 0
151 1 0.75 0.565094 0.0443619
98 1 3.56679e-17 0.815094 0.0443619
122 1 4.00817e-17 0.679996 0.0544834
124 1 0.25 0.736825 0.00919034
146 1 0.5 0.815094 0.0443619
170 1 0.5 0.679996 0.0544834
172 1 0.75 0.736825 0.00919034
99 1 0.25 0.871395 0
121 1 0 0.986825 0.00919034
125 1 0.25 0.929996 0.0544834
147 1 0.75 0.871395 0
169 1 0.5 0.986825 0.00919034
173 1 0.75 0.929996 0.0544834
4 1 0 0.00715404 0.0902044
33 1 0.25 0.122177 0.101274
52 1 0.5 0.00715404 0.0902044
81 1 0.75 0.122177 0.101274
30 1 3.41948e-17 0.0646243 0.14763
78 1 0.5 0.0646243 0.14763
5 1 1 0.199689 0.136593
8 1 0.25 0.257154 0.0902044
53 1 0.5 0.199689 0.136593
56 1 0.75 0.257154 0.0902044
34 1 0.25 0.314624 0.14763
82 1 0.75 0.314624 0.14763
9 1 0.25 0.449689 0.136593
27 1 0 0.372177 0.101274
57 1 0.75 0.449689 0.136593
75 1 0.5 0.372177 0.101274
100 1 1.04306e-17 0.507154 0.0902044
129 1 0.25 0.622177 0.101274
148 1 0.5 0.507154 0.0902044
177 1 0.75 0.622177 0.101274
126 1 0 0.564624 0.14763
174 1 0.5 0.564624 0.14763
101 1 0 0.699689 0.136593
104 1 0.25 0.757154 0.0902044
149 1 0.5 0.699689 0.136593
152 1 0.75 0.757154 0.0902044
130 1 0.25 0.814624 0.14763
178 1 0.75 0.814624 0.14763
105 1 0.25 0.949689 0.136593
123 1 1.74769e-17 0.872177 0.101274
153 1 0.75 0.949689 0.136593
171 1 0.5 0.872177 0.101274
13 1 0.25 0.142091 0.183315
37 1 0.25 0.00705467 0.193547
61 1 0.75 0.142091 0.183315
85 1 0.75 0.00705467 0.193547
10 1 0 0.0845159 0.228867
58 1 0.5 0.0845159 0.228867
31 1 4.88341e-17 0.257055 0.193547
79 1 0.5 0.257055 0.193547
38 1 0.25 0.199479 0.237763
86 1 0.75 0.199479 0.237763
6 1 0 0.392091 0.183315
54 1 0.5 0.392091 0.183315
14 1 0.25 0.334516 0.228867
32 1 0 0.449479 0.237763
62 1 0.75 0.334516 0.228867
80 1 0.5 0.449479 0.237763
109 1 0.25 0.642091 0.183315
133 1 0.25 0.507055 0.193547
157 1 0.75 0.642091 0.183315
181 1 0.75 0.507055 0.193547
106 1 0 0.584516 0.228867
154 1 0.5 0.584516 0.228867
127 1 4.16389e-17 0.757055 0.193547
175 1 0.5 0.757055 0.193547
134 1 0.25 0.699479 0.237763
182 1 0.75 0.699479 0.237763
102 1 7.3366e-17 0.892091 0.183315
150 1 0.5 0.892091 0.183315
110 1 0.25 0.834516 0.228867
128 1 1 0.949479 0.237763
158 1 0.75 0.834516 0.228867
176 1 0.5 0.949479 0.237763
135 1 0.433333 0.075237 0.386823
183 1 0.933333 0.075237 0.386823
17 1 0.433333 0.210274 0.377928
65 1 0.933333 0.210274 0.377928
35 1 0.183333 0.325237 0.386823
83 1 0.683333 0.325237 0.386823
11 1 0.183333 0.460274 0.377928
59 1 0.683333 0.460274 0.377928
39 1 0.433333 0.575237 0.386823
87 1 0.933333 0.575237 0.386823
113 1 0.433333 0.710274 0.377928
161 1 0.933333 0.710274 0.377928
131 1 0.183333 0.825237 0.386823
179 1 0.683333 0.825237 0.386823
107 1 0.183333 0.960274 0.377928
155 1 0.683333 0.960274 0.377928
108 1 0.183333 0.152698 0.422143
156 1 0.683333 0.152698 0.422143
115 1 0.433333 0.0951286 0.46806
163 1 0.933333 0.0951286 0.46806
132 1 0.183333 0.0176618 0.432376
180 1 0.683333 0.0176618 0.432376
40 1 0.183333 0.210064 0.479098
88 1 0.683333 0.210064 0.479098
43 1 0.433333 0.267662 0.432376
91 1 0.933333 0.267662 0.432376
15 1 0.183333 0.345129 0.46806
63 1 0.683333 0.345129 0.46806
18 1 0.433333 0.402698 0.422143
66 1 0.933333 0.402698 0.422143
44 1 0.433333 0.460064 0.479098
92 1 0.933333 0.460064 0.479098
36 1 0.183333 0.517662 0.432376
84 1 0.683333 0.517662 0.432376
19 1 0.433333 0.595129 0.46806
67 1 0.933333 0.595129 0.46806
12 1 0.183333 0.652698 0.422143
60 1 0.683333 0.652698 0.422143
136 1 0.183333 0.710064 0.479098
184 1 0.683333 0.710064 0.479098
139 1 0.433333 0.767662 0.432376
187 1 0.933333 0.767662 0.432376
111 1 0.183333 0.845129 0.46806
159 1 0.683333 0.845129 0.46806
114 1 0.433333 0.902698 0.422143
162 1 0.933333 0.902698 0.422143
140 1 0.433333 0.960064 0.479098
188 1 0.933333 0.960064 0.479098
141 1 0.433333 0.152599 0.525486
189 1 0.933333 0.152599 0.525486
138 1 0.183333 0.0946589 0.571329
186 1 0.683333 0.0946589 0.571329
112 1 0.183333 0.0375757 0.514416
160 1 0.683333 0.0375757 0.514416
20 1 0.183333 0.229757 0.561207
68 1 0.683333 0.229757 0.561207
24 1 0.433333 0.287576 0.514416
72 1 0.933333 0.287576 0.514416
47 1 0.433333 0.344659 0.571329
95 1 0.933333 0.344659 0.571329
41 1 0.183333 0.402599 0.525486
89 1 0.683333 0.402599 0.525486
22 1 0.433333 0.479757 0.561207
70 1 0.933333 0.479757 0.561207
16 1 0.183333 0.537576 0.514416
64 1 0.683333 0.537576 0.514416
42 1 0.183333 0.594659 0.571329
90 1 0.683333 0.594659 0.571329
45 1 0.433333 0.652599 0.525486
93 1 0.933333 0.652599 0.525486
116 1 0.183333 0.729757 0.561207
164 1 0.683333 0.729757 0.561207
120 1 0.433333 0.787576 0.514416
168 1 0.933333 0.787576 0.514416
143 1 0.433333 0.844659 0.571329
191 1 0.933333 0.844659 0.571329
137 1 0.183333 0.902599 0.525486
185 1 0.683333 0.902599 0.525486
118 1 0.433333 0.979757 0.561207
166 1 0.933333 0.979757 0.561207
144 1 0.433333 0.0383583 0.615691
192 1 0.933333 0.0383583 0.615691
119 1 0.433333 0.172928 0.6065
167 1 0.933333 0.172928 0.6065
46 1 0.183333 0.288358 0.615691
94 1 0.683333 0.288358 0.615691
21 1 0.183333 0.422928 0.6065
69 1 0.683333 0.422928 0.6065
48 1 0.433333 0.538358 0.615691
96 1 0.933333 0.538358 0.615691
23 1 0.433333 0.672928 0.6065
71 1 0.933333 0.672928 0.6065
142 1 0.183333 0.788358 0.615691
190 1 0.683333 0.788358 0.615691
117 1 0.183333 0.922928 0.6065
165 1 0.683333 0.922928 0.6065
