ITEM: TIMESTEP
136
ITEM: NUMBER OF ATOMS
192
ITEM: BOX BOUNDS pp pp pp
0.0000000000000000e+00 7.1176886540000002e+00
0.0000000000000000e+00 2.5858194780409800e+01
0.0000000000000000e+00 4.8301037599330101e+01
ITEM: ATOMS id type xs ys zs
1 1 0 0.121395 0
7 1 0.25 0.0650943 0.044288
49 1 0.5 0.121395 0
55 1 0.75 0.0650943 0.044288
2 1 3.36001e-17 0.315094 0.044288
26 1 0 0.179996 0.0544396
28 1 0.25 0.236825 0.00919034
50 1 0.5 0.315094 0.044288
74 1 0.5 0.179996 0.0544396
76 1 0.75 0.236825 0.00919034
3 1 0.25 0.371395 0
25 1 0 0.486825 0.00919034
29 1 0.25 0.429996 0.0544396
51 1 0.75 0.371395 0
73 1 0.5 0.486825 0.00919034
77 1 0.75 0.429996 0.0544396
97 1 0 0.621395 0
103 1 0.25 0.565094 0.044288
145 1 0.5 0.621395 0
151 1 0.75 0.565094 0.044288
98 1 3.56679e-17 0.815094 0.044288
122 1 4.00817e-17 0.679996 0.0544396
124 1 0.25 0.736825 0.00919034
146 1 0.5 0.815094 0.044288
170 1 0.5 0.679996 0.0544396
172 1 0.75 0.736825 0.00919034
99 1 0.25 0.871395 0
121 1 0 0.986825 0.00919034
125 1 0.25 0.929996 0.0544396
147 1 0.75 0.871395 0
169 1 0.5 0.986825 0.00919034
173 1 0.75 0.929996 0.0544396
4 1 0 0.00715404 0.0900153
33 1 0.25 0.122177 0.101123
52 1 0.5 0.00715404 0.0900153
81 1 0.75 0.122177 0.101123
30 1 3.41948e-17 0.0646243 0.147368
78 1 0.5 0.0646243 0.147368
5 1 1 0.199689 0.136298
8 1 0.25 0.257154 0.0900153
53 1 0.5 0.199689 0.136298
56 1 0.75 0.257154 0.0900153
34 1 0.25 0.314624 0.147368
82 1 0.75 0.314624 0.147368
9 1 0.25 0.449689 0.136298
27 1 0 0.372177 0.101123
57 1 0.75 0.449689 0.136298
75 1 0.5 0.372177 0.101123
100 1 1.04306e-17 0.507154 0.0900153
129 1 0.25 0.622177 0.101123
148 1 0.5 0.507154 0.0900153
177 1 0.75 0.622177 0.101123
126 1 0 0.564624 0.147368
174 1 0.5 0.564624 0.147368
101 1 0 0.699689 0.136298
104 1 0.25 0.757154 0.0900153
149 1 0.5 0.699689 0.136298
152 1 0.75 0.757154 0.0900153
130 1 0.25 0.814624 0.147368
178 1 0.75 0.814624 0.147368
105 1 0.25 0.949689 0.136298
123 1 1.74769e-17 0.872177 0.101123
153 1 0.75 0.949689 0.136298
171 1 0.5 0.872177 0.101123
13 1 0.25 0.142091 0.18291
37 1 0.25 0.00705467 0.193174
61 1 0.75 0.142091 0.18291
85 1 0.75 0.00705467 0.193174
10 1 0 0.0845159 0.228436
58 1 0.5 0.0845159 0.228436
31 1 4.88341e-17 0.257055 0.193174
79 1 0.5 0.257055 0.193174
38 1 0.25 0.199479 0.237307
86 1 0.75 0.199479 0.237307
6 1 0 0.392091 0.18291
54 1 0.5 0.392091 0.18291
14 1 0.25 0.334516 0.228436
32 1 0 0.449479 0.237307
62 1 0.75 0.334516 0.228436
80 1 0.5 0.449479 0.237307
109 1 0.25 0.642091 0.18291
133 1 0.25 0.507055 0.193174
157 1 0.75 0.642091 0.18291
181 1 0.75 0.507055 0.193174
106 1 0 0.584516 0.228436
154 1 0.5 0.584516 0.228436
127 1 4.16389e-17 0.757055 0.193174
175 1 0.5 0.757055 0.193174
134 1 0.25 0.699479 0.237307
182 1 0.75 0.699479 0.237307
102 1 7.3366e-17 0.892091 0.18291
150 1 0.5 0.892091 0.18291
110 1 0.25 0.834516 0.228436
128 1 1 0.949479 0.237307
158 1 0.75 0.834516 0.228436
176 1 0.5 0.949479 0.237307
17 1 0.35 0.126941 0.378383
65 1 0.85 0.126941 0.378383
35 1 0.1 0.241904 0.387255
83 1 0.6 0.241904 0.387255
11 1 0.1 0.376941 0.378383
59 1 0.6 0.376941 0.378383
39 1 0.35 0.491904 0.387255
87 1 0.85 0.491904 0.387255
113 1 0.35 0.626941 0.378383
161 1 0.85 0.626941 0.378383
131 1 0.1 0.741904 0.387255
179 1 0.6 0.741904 0.387255
107 1 0.1 0.876941 0.378383
155 1 0.6 0.876941 0.378383
135 1 0.35 0.991904 0.387255
183 1 0.85 0.991904 0.387255
108 1 0.1 0.0693649 0.422516
156 1 0.6 0.0693649 0.422516
40 1 0.1 0.126731 0.479392
88 1 0.6 0.126731 0.479392
115 1 0.35 0.0117953 0.468323
163 1 0.85 0.0117953 0.468323
43 1 0.35 0.184329 0.43278
91 1 0.85 0.184329 0.43278
18 1 0.35 0.319365 0.422516
66 1 0.85 0.319365 0.422516
15 1 0.1 0.261795 0.468323
63 1 0.6 0.261795 0.468323
44 1 0.35 0.376731 0.479392
92 1 0.85 0.376731 0.479392
36 1 0.1 0.434329 0.43278
84 1 0.6 0.434329 0.43278
19 1 0.35 0.511795 0.468323
67 1 0.85 0.511795 0.468323
12 1 0.1 0.569365 0.422516
60 1 0.6 0.569365 0.422516
136 1 0.1 0.626731 0.479392
184 1 0.6 0.626731 0.479392
139 1 0.35 0.684329 0.43278
187 1 0.85 0.684329 0.43278
114 1 0.35 0.819365 0.422516
162 1 0.85 0.819365 0.422516
111 1 0.1 0.761795 0.468323
159 1 0.6 0.761795 0.468323
140 1 0.35 0.876731 0.479392
188 1 0.85 0.876731 0.479392
132 1 0.1 0.934329 0.43278
180 1 0.6 0.934329 0.43278
20 1 0.1 0.146424 0.561251
68 1 0.6 0.146424 0.561251
141 1 0.35 0.0692657 0.525675
189 1 0.85 0.0692657 0.525675
138 1 0.1 0.0113256 0.571403
186 1 0.6 0.0113256 0.571403
24 1 0.35 0.204242 0.514568
72 1 0.85 0.204242 0.514568
47 1 0.35 0.261326 0.571403
95 1 0.85 0.261326 0.571403
41 1 0.1 0.319266 0.525675
89 1 0.6 0.319266 0.525675
16 1 0.1 0.454242 0.514568
64 1 0.6 0.454242 0.514568
22 1 0.35 0.396424 0.561251
70 1 0.85 0.396424 0.561251
42 1 0.1 0.511326 0.571403
90 1 0.6 0.511326 0.571403
45 1 0.35 0.569266 0.525675
93 1 0.85 0.569266 0.525675
116 1 0.1 0.646424 0.561251
164 1 0.6 0.646424 0.561251
120 1 0.35 0.704242 0.514568
168 1 0.85 0.704242 0.514568
143 1 0.35 0.761326 0.571403
191 1 0.85 0.761326 0.571403
137 1 0.1 0.819266 0.525675
185 1 0.6 0.819266 0.525675
112 1 0.1 0.954242 0.514568
160 1 0.6 0.954242 0.514568
118 1 0.35 0.896424 0.561251
166 1 0.85 0.896424 0.561251
119 1 0.35 0.089595 0.6065
167 1 0.85 0.089595 0.6065
46 1 0.1 0.205025 0.615691
94 1 0.6 0.205025 0.615691
21 1 0.1 0.339595 0.6065
69 1 0.6 0.339595 0.6065
48 1 0.35 0.455025 0.615691
96 1 0.85 0.455025 0.615691
23 1 0.35 0.589595 0.6065
71 1 0.85 0.589595 0.6065
142 1 0.1 0.705025 0.615691
190 1 0.6 0.705025 0.615691
117 1 0.1 0.839595 0.6065
165 1 0.6 0.839595 0.6065
144 1 0.35 0.955025 0.615691
192 1 0.85 0.955025 0.615691
