ITEM: TIMESTEP
234
ITEM: NUMBER OF ATOMS
192
ITEM: BOX BOUNDS pp pp pp
0.0000000000000000e+00 7.1176886540000002e+00
0.0000000000000000e+00 2.5858194780409800e+01
0.0000000000000000e+00 4.8301037599330101e+01
ITEM: ATOMS id type xs ys zs
1 1 0 0.121395 0
7 1 0.25 0.0650943 0.0443323
49 1 0.5 0.121395 0
55 1 0.75 0.0650943 0.0443323
2 1 3.36001e-17 0.315094 0.0443323
26 1 0 0.179996 0.054466
28 1 0.25 0.236825 0.00919034
50 1 0.5 0.315094 0.0443323
74 1 0.5 0.179996 0.054466
76 1 0.75 0.236825 0.00919034
3 1 0.25 0.371395 0
25 1 0 0.486825 0.00919034
29 1 0.25 0.429996 0.054466
51 1 0.75 0.371395 0
73 1 0.5 0.486825 0.00919034
77 1 0.75 0.429996 0.054466
97 1 0 0.621395 0
103 1 0.25 0.565094 0.0443323
145 1 0.5 0.621395 0
151 1 0.75 0.565094 0.0443323
98 1 3.56679e-17 0.815094 0.0443323
122 1 4.00817e-17 0.679996 0.054466
124 1 0.25 0.736825 0.00919034
146 1 0.5 0.815094 0.0443323
170 1 0.5 0.679996 0.054466
172 1 0.75 0.736825 0.00919034
99 1 0.25 0.871395 0
121 1 0 0.986825 0.00919034
125 1 0.25 0.929996 0.054466
147 1 0.75 0.871395 0
169 1 0.5 0.986825 0.00919034
173 1 0.75 0.929996 0.054466
4 1 0 0.00715404 0.0901295
33 1 0.25 0.122177 0.101214
52 1 0.5 0.00715404 0.0901295
81 1 0.75 0.122177 0.101214
30 1 3.41948e-17 0.0646243 0.147526
78 1 0.5 0.0646243 0.147526
5 1 1 0.199689 0.136476
8 1 0.25 0.257154 0.0901295
53 1 0.5 0.199689 0.136476
56 1 0.75 0.257154 0.0901295
34 1 0.25 0.314624 0.147527
82 1 0.75 0.314624 0.147527
9 1 0.25 0.449689 0.136476
27 1 0 0.372177 0.101214
57 1 0.75 0.449689 0.136476
75 1 0.5 0.372177 0.101214
100 1 1.04306e-17 0.507154 0.0901295
129 1 0.25 0.622177 0.101214
148 1 0.5 0.507154 0.0901295
177 1 0.75 0.622177 0.101214
126 1 0 0.564624 0.147526
174 1 0.5 0.564624 0.147526
101 1 0 0.699689 0.136476
104 1 0.25 0.757154 0.0901295
149 1 0.5 0.699689 0.136476
152 1 0.75 0.757154 0.0901295
130 1 0.25 0.814624 0.147527
178 1 0.75 0.814624 0.147527
105 1 0.25 0.949689 0.136476
123 1 1.74769e-17 0.872177 0.101214
153 1 0.75 0.949689 0.136476
171 1 0.5 0.872177 0.101214
13 1 0.25 0.142091 0.183154
37 1 0.25 0.00705467 0.1934
61 1 0.75 0.142091 0.183154
85 1 0.75 0.00705467 0.1934
10 1 0 0.0845159 0.228697
58 1 0.5 0.0845159 0.228697
31 1 4.88341e-17 0.257055 0.1934
79 1 0.5 0.257055 0.1934
38 1 0.25 0.199479 0.237581
86 1 0.75 0.199479 0.237581
6 1 0 0.392091 0.183154
54 1 0.5 0.392091 0.183154
14 1 0.25 0.334516 0.228697
32 1 0 0.449479 0.237581
62 1 0.75 0.334516 0.228697
80 1 0.5 0.449479 0.237581
109 1 0.25 0.642091 0.183154
133 1 0.25 0.507055 0.1934
157 1 0.75 0.642091 0.183154
181 1 0.75 0.507055 0.1934
106 1 0 0.584516 0.228697
154 1 0.5 0.584516 0.228697
127 1 4.16389e-17 0.757055 0.1934
175 1 0.5 0.757055 0.1934
134 1 0.25 0.699479 0.237581
182 1 0.75 0.699479 0.237581
102 1 7.3366e-17 0.892091 0.183154
150 1 0.5 0.892091 0.183154
110 1 0.25 0.834516 0.228697
128 1 1 0.949479 0.237581
158 1 0.75 0.834516 0.228697
176 1 0.5 0.949479 0.237581
135 1 0.45 0.0919037 0.386994
183 1 0.95 0.0919037 0.386994
17 1 0.45 0.226941 0.378109
65 1 0.95 0.226941 0.378109
35 1 0.2 0.341904 0.386994
83 1 0.7 0.341904 0.386994
11 1 0.2 0.476941 0.378109
59 1 0.7 0.476941 0.378109
39 1 0.45 0.591904 0.386994
87 1 0.95 0.591904 0.386994
113 1 0.45 0.726941 0.378109
161 1 0.95 0.726941 0.378109
131 1 0.2 0.841904 0.386994
179 1 0.7 0.841904 0.386994
107 1 0.2 0.976941 0.378109
155 1 0.7 0.976941 0.378109
115 1 0.45 0.111795 0.468164
163 1 0.95 0.111795 0.468164
132 1 0.2 0.0343285 0.432536
180 1 0.7 0.0343285 0.432536
108 1 0.2 0.169365 0.422291
156 1 0.7 0.169365 0.422291
40 1 0.2 0.226731 0.479214
88 1 0.7 0.226731 0.479214
43 1 0.45 0.284329 0.432536
91 1 0.95 0.284329 0.432536
15 1 0.2 0.361795 0.468164
63 1 0.7 0.361795 0.468164
18 1 0.45 0.419365 0.422291
66 1 0.95 0.419365 0.422291
44 1 0.45 0.476731 0.479214
92 1 0.95 0.476731 0.479214
36 1 0.2 0.534329 0.432536
84 1 0.7 0.534329 0.432536
19 1 0.45 0.611795 0.468164
67 1 0.95 0.611795 0.468164
12 1 0.2 0.669365 0.422291
60 1 0.7 0.669365 0.422291
136 1 0.2 0.726731 0.479214
184 1 0.7 0.726731 0.479214
139 1 0.45 0.784329 0.432536
187 1 0.95 0.784329 0.432536
111 1 0.2 0.861795 0.468164
159 1 0.7 0.861795 0.468164
114 1 0.45 0.919365 0.422291
162 1 0.95 0.919365 0.422291
140 1 0.45 0.976731 0.479214
188 1 0.95 0.976731 0.479214
138 1 0.2 0.111326 0.571358
186 1 0.7 0.111326 0.571358
112 1 0.2 0.0542424 0.514476
160 1 0.7 0.0542424 0.514476
141 1 0.45 0.169266 0.525561
189 1 0.95 0.169266 0.525561
20 1 0.2 0.246424 0.561225
68 1 0.7 0.246424 0.561225
24 1 0.45 0.304242 0.514476
72 1 0.95 0.304242 0.514476
47 1 0.45 0.361326 0.571358
95 1 0.95 0.361326 0.571358
41 1 0.2 0.419266 0.525561
89 1 0.7 0.419266 0.525561
22 1 0.45 0.496424 0.561225
70 1 0.95 0.496424 0.561225
16 1 0.2 0.554242 0.514476
64 1 0.7 0.554242 0.514476
42 1 0.2 0.611326 0.571358
90 1 0.7 0.611326 0.571358
45 1 0.45 0.669266 0.525561
93 1 0.95 0.669266 0.525561
116 1 0.2 0.746424 0.561225
164 1 0.7 0.746424 0.561225
120 1 0.45 0.804242 0.514476
168 1 0.95 0.804242 0.514476
143 1 0.45 0.861326 0.571358
191 1 0.95 0.861326 0.571358
137 1 0.2 0.919266 0.525561
185 1 0.7 0.919266 0.525561
118 1 0.45 0.996424 0.561225
166 1 0.95 0.996424 0.561225
144 1 0.45 0.055025 0.615691
192 1 0.95 0.055025 0.615691
119 1 0.45 0.189595 0.6065
167 1 0.95 0.189595 0.6065
46 1 0.2 0.305025 0.615691
94 1 0.7 0.305025 0.615691
21 1 0.2 0.439595 0.6065
69 1 0.7 0.439595 0.6065
48 1 0.45 0.555025 0.615691
96 1 0.95 0.555025 0.615691
23 1 0.45 0.689595 0.6065
71 1 0.95 0.689595 0.6065
142 1 0.2 0.805025 0.615691
190 1 0.7 0.805025 0.615691
117 1 0.2 0.939595 0.6065
165 1 0.7 0.939595 0.6065
