ITEM: TIMESTEP
111
ITEM: NUMBER OF ATOMS
192
ITEM: BOX BOUNDS pp pp pp
0.0000000000000000e+00 7.1176886540000002e+00
0.0000000000000000e+00 2.5858194780409800e+01
0.0000000000000000e+00 4.8301037599330101e+01
ITEM: ATOMS id type xs ys zs
1 1 0 0.121395 0
7 1 0.25 0.0650943 0.0442773
49 1 0.5 0.121395 0
55 1 0.75 0.0650943 0.0442773
2 1 3.36001e-17 0.315094 0.0442773
26 1 0 0.179996 0.0544334
28 1 0.25 0.236825 0.00919034
50 1 0.5 0.315094 0.0442773
74 1 0.5 0.179996 0.0544334
76 1 0.75 0.236825 0.00919034
3 1 0.25 0.371395 0
25 1 0 0.486825 0.00919034
29 1 0.25 0.429996 0.0544335
51 1 0.75 0.371395 0
73 1 0.5 0.486825 0.00919034
77 1 0.75 0.429996 0.0544335
97 1 0 0.621395 0
103 1 0.25 0.565094 0.0442773
145 1 0.5 0.621395 0
151 1 0.75 0.565094 0.0442773
98 1 3.56679e-17 0.815094 0.0442773
122 1 4.00817e-17 0.679996 0.0544334
124 1 0.25 0.736825 0.00919034
146 1 0.5 0.815094 0.0442773
170 1 0.5 0.679996 0.0544334
172 1 0.75 0.736825 0.00919034
99 1 0.25 0.871395 0
121 1 0 0.986825 0.00919034
125 1 0.25 0.929996 0.0544335
147 1 0.75 0.871395 0
169 1 0.5 0.986825 0.00919034
173 1 0.75 0.929996 0.0544335
4 1 0 0.00715404 0.0899878
33 1 0.25 0.122177 0.101101
52 1 0.5 0.00715404 0.0899878
81 1 0.75 0.122177 0.101101
30 1 3.41948e-17 0.0646243 0.14733
78 1 0.5 0.0646243 0.14733
5 1 1 0.199689 0.136255
8 1 0.25 0.257154 0.0899878
53 1 0.5 0.199689 0.136255
56 1 0.75 0.257154 0.0899878
34 1 0.25 0.314624 0.14733
82 1 0.75 0.314624 0.14733
9 1 0.25 0.449689 0.136255
27 1 0 0.372177 0.101101
57 1 0.75 0.449689 0.136255
75 1 0.5 0.372177 0.101101
100 1 1.04306e-17 0.507154 0.0899878
129 1 0.25 0.622177 0.101101
148 1 0.5 0.507154 0.0899878
177 1 0.75 0.622177 0.101101
126 1 0 0.564624 0.14733
174 1 0.5 0.564624 0.14733
101 1 0 0.699689 0.136255
104 1 0.25 0.757154 0.0899878
149 1 0.5 0.699689 0.136255
152 1 0.75 0.757154 0.0899878
130 1 0.25 0.814624 0.14733
178 1 0.75 0.814624 0.14733
105 1 0.25 0.949689 0.136255
123 1 1.74769e-17 0.872177 0.101101
153 1 0.75 0.949689 0.136255
171 1 0.5 0.872177 0.101101
13 1 0.25 0.142091 0.182852
37 1 0.25 0.00705467 0.19312
61 1 0.75 0.142091 0.182852
85 1 0.75 0.00705467 0.19312
10 1 0 0.0845159 0.228374
58 1 0.5 0.0845159 0.228374
31 1 4.88341e-17 0.257055 0.19312
79 1 0.5 0.257055 0.19312
38 1 0.25 0.199479 0.237241
86 1 0.75 0.199479 0.237241
6 1 0 0.392091 0.182852
54 1 0.5 0.392091 0.182852
14 1 0.25 0.334516 0.228374
32 1 0 0.449479 0.237241
62 1 0.75 0.334516 0.228374
80 1 0.5 0.449479 0.237241
109 1 0.25 0.642091 0.182852
133 1 0.25 0.507055 0.19312
157 1 0.75 0.642091 0.182852
181 1 0.75 0.507055 0.19312
106 1 0 0.584516 0.228374
154 1 0.5 0.584516 0.228374
127 1 4.16389e-17 0.757055 0.19312
175 1 0.5 0.757055 0.19312
134 1 0.25 0.699479 0.237241
182 1 0.75 0.699479 0.237241
102 1 7.3366e-17 0.892091 0.182852
150 1 0.5 0.892091 0.182852
110 1 0.25 0.834516 0.228374
128 1 1 0.949479 0.237241
158 1 0.75 0.834516 0.228374
176 1 0.5 0.949479 0.237241
17 1 0.3 0.076941 0.37845
65 1 0.8 0.076941 0.37845
11 1 0.05 0.326941 0.37845
59 1 0.55 0.326941 0.37845
35 1 0.05 0.191904 0.387317
83 1 0.55 0.191904 0.387317
39 1 0.3 0.441904 0.387317
87 1 0.8 0.441904 0.387317
113 1 0.3 0.576941 0.37845
161 1 0.8 0.576941 0.37845
107 1 0.05 0.826941 0.37845
155 1 0.55 0.826941 0.37845
131 1 0.05 0.691904 0.387317
179 1 0.55 0.691904 0.387317
135 1 0.3 0.941904 0.387317
183 1 0.8 0.941904 0.387317
43 1 0.3 0.134329 0.432839
91 1 0.8 0.134329 0.432839
108 1 0.05 0.0193649 0.42257
156 1 0.55 0.0193649 0.42257
40 1 0.05 0.0767309 0.479435
88 1 0.55 0.0767309 0.479435
18 1 0.3 0.269365 0.42257
66 1 0.8 0.269365 0.42257
15 1 0.05 0.211795 0.468361
63 1 0.55 0.211795 0.468361
44 1 0.3 0.326731 0.479435
92 1 0.8 0.326731 0.479435
36 1 0.05 0.384329 0.432839
84 1 0.55 0.384329 0.432839
19 1 0.3 0.461795 0.468361
67 1 0.8 0.461795 0.468361
12 1 0.05 0.519365 0.42257
60 1 0.55 0.519365 0.42257
139 1 0.3 0.634329 0.432839
187 1 0.8 0.634329 0.432839
136 1 0.05 0.576731 0.479435
184 1 0.55 0.576731 0.479435
114 1 0.3 0.769365 0.42257
162 1 0.8 0.769365 0.42257
111 1 0.05 0.711795 0.468361
159 1 0.55 0.711795 0.468361
140 1 0.3 0.826731 0.479435
188 1 0.8 0.826731 0.479435
132 1 0.05 0.884329 0.432839
180 1 0.55 0.884329 0.432839
115 1 0.3 0.961795 0.468361
163 1 0.8 0.961795 0.468361
24 1 0.3 0.154242 0.514589
72 1 0.8 0.154242 0.514589
20 1 0.05 0.096424 0.561257
68 1 0.55 0.096424 0.561257
141 1 0.3 0.0192657 0.525703
189 1 0.8 0.0192657 0.525703
47 1 0.3 0.211326 0.571413
95 1 0.8 0.211326 0.571413
41 1 0.05 0.269266 0.525703
89 1 0.55 0.269266 0.525703
16 1 0.05 0.404242 0.514589
64 1 0.55 0.404242 0.514589
22 1 0.3 0.346424 0.561257
70 1 0.8 0.346424 0.561257
42 1 0.05 0.461326 0.571413
90 1 0.55 0.461326 0.571413
120 1 0.3 0.654242 0.514589
168 1 0.8 0.654242 0.514589
45 1 0.3 0.519266 0.525703
93 1 0.8 0.519266 0.525703
116 1 0.05 0.596424 0.561257
164 1 0.55 0.596424 0.561257
143 1 0.3 0.711326 0.571413
191 1 0.8 0.711326 0.571413
137 1 0.05 0.769266 0.525703
185 1 0.55 0.769266 0.525703
112 1 0.05 0.904242 0.514589
160 1 0.55 0.904242 0.514589
118 1 0.3 0.846424 0.561257
166 1 0.8 0.846424 0.561257
138 1 0.05 0.961326 0.571413
186 1 0.55 0.961326 0.571413
46 1 0.05 0.155025 0.615691
94 1 0.55 0.155025 0.615691
119 1 0.3 0.039595 0.6065
167 1 0.8 0.039595 0.6065
21 1 0.05 0.289595 0.6065
69 1 0.55 0.289595 0.6065
48 1 0.3 0.405025 0.615691
96 1 0.8 0.405025 0.615691
23 1 0.3 0.539595 0.6065
71 1 0.8 0.539595 0.6065
142 1 0.05 0.655025 0.615691
190 1 0.55 0.655025 0.615691
117 1 0.05 0.789595 0.6065
165 1 0.55 0.789595 0.6065
144 1 0.3 0.905025 0.615691
192 1 0.8 0.905025 0.615691
