ITEM: TIMESTEP
127
ITEM: NUMBER OF ATOMS
192
ITEM: BOX BOUNDS pp pp pp
0.0000000000000000e+00 5.9011998176000002e+00
0.0000000000000000e+00 2.1324426539756200e+01
0.0000000000000000e+00 4.3042699813799999e+01
ITEM: ATOMS id type xs ys zs
1 1 0 0.121395 0
7 1 0.25 0.0685083 0.0485099
26 1 1 0.183377 0.0573987
49 1 0.5 0.121395 0
55 1 0.75 0.0685083 0.0485099
74 1 0.5 0.183377 0.0573987
2 1 0 0.318508 0.0485099
3 1 0.25 0.371395 0
28 1 0.25 0.236825 0.00868461
50 1 0.5 0.318508 0.0485099
51 1 0.75 0.371395 0
76 1 0.75 0.236825 0.00868461
25 1 0 0.486825 0.00868461
29 1 0.25 0.433377 0.0573987
73 1 0.5 0.486825 0.00868461
77 1 0.75 0.433377 0.0573987
103 1 0.25 0.568508 0.0485099
151 1 0.75 0.568508 0.0485099
97 1 0 0.621395 0
122 1 1 0.683377 0.0573987
124 1 0.25 0.736825 0.00868461
145 1 0.5 0.621395 0
170 1 0.5 0.683377 0.0573987
172 1 0.75 0.736825 0.00868461
98 1 1.50508e-16 0.818508 0.0485099
99 1 0.25 0.871395 0
121 1 0 0.986825 0.00868461
125 1 0.25 0.933377 0.0573987
146 1 0.5 0.818508 0.0485099
147 1 0.75 0.871395 0
169 1 0.5 0.986825 0.00868461
173 1 0.75 0.933377 0.0573987
4 1 0 0.00925805 0.101916
30 1 0 0.0667923 0.161963
33 1 0.25 0.125018 0.110433
52 1 0.5 0.00925805 0.101916
78 1 0.5 0.0667923 0.161963
81 1 0.75 0.125018 0.110433
5 1 0 0.201122 0.15385
53 1 0.5 0.201122 0.15385
8 1 0.25 0.259258 0.101916
27 1 0 0.375018 0.110433
34 1 0.25 0.316792 0.161963
56 1 0.75 0.259258 0.101916
75 1 0.5 0.375018 0.110433
82 1 0.75 0.316792 0.161963
9 1 0.25 0.451122 0.15385
57 1 0.75 0.451122 0.15385
100 1 1 0.509258 0.101916
126 1 0 0.566792 0.161963
148 1 0.5 0.509258 0.101916
174 1 0.5 0.566792 0.161963
101 1 0 0.701122 0.15385
104 1 0.25 0.759258 0.101916
129 1 0.25 0.625018 0.110433
149 1 0.5 0.701122 0.15385
152 1 0.75 0.759258 0.101916
177 1 0.75 0.625018 0.110433
105 1 0.25 0.951122 0.15385
123 1 2.18999e-17 0.875018 0.110433
130 1 0.25 0.816792 0.161963
153 1 0.75 0.951122 0.15385
171 1 0.5 0.875018 0.110433
178 1 0.75 0.816792 0.161963
10 1 1 0.0845017 0.260443
13 1 0.25 0.142759 0.206631
37 1 0.25 0.0084478 0.214131
58 1 0.5 0.0845017 0.260443
61 1 0.75 0.142759 0.206631
85 1 0.75 0.0084478 0.214131
38 1 0.25 0.200198 0.264252
86 1 0.75 0.200198 0.264252
6 1 1 0.392759 0.206631
14 1 0.25 0.334502 0.260443
31 1 2.09346e-16 0.258448 0.214131
54 1 0.5 0.392759 0.206631
62 1 0.75 0.334502 0.260443
79 1 0.5 0.258448 0.214131
32 1 0 0.450198 0.264252
80 1 0.5 0.450198 0.264252
106 1 1.50508e-16 0.584502 0.260443
133 1 0.25 0.508448 0.214131
154 1 0.5 0.584502 0.260443
181 1 0.75 0.508448 0.214131
109 1 0.25 0.642759 0.206631
127 1 1.46313e-17 0.758448 0.214131
134 1 0.25 0.700198 0.264252
157 1 0.75 0.642759 0.206631
175 1 0.5 0.758448 0.214131
182 1 0.75 0.700198 0.264252
102 1 0 0.892759 0.206631
110 1 0.25 0.834502 0.260443
128 1 1.50508e-16 0.950198 0.264252
150 1 0.5 0.892759 0.206631
158 1 0.75 0.834502 0.260443
176 1 0.5 0.950198 0.264252
17 1 0.375 0.151221 0.317559
65 1 0.875 0.151221 0.317559
135 1 0.375 0.0169178 0.321367
183 1 0.875 0.0169178 0.321367
35 1 0.125 0.266918 0.321367
83 1 0.625 0.266918 0.321367
11 1 0.125 0.401221 0.317559
59 1 0.625 0.401221 0.317559
39 1 0.375 0.516918 0.321367
87 1 0.875 0.516918 0.321367
113 1 0.375 0.651221 0.317559
161 1 0.875 0.651221 0.317559
131 1 0.125 0.766918 0.321367
179 1 0.625 0.766918 0.321367
107 1 0.125 0.901221 0.317559
155 1 0.625 0.901221 0.317559
40 1 0.125 0.150298 0.42796
88 1 0.625 0.150298 0.42796
108 1 0.125 0.0929718 0.36768
156 1 0.625 0.0929718 0.36768
115 1 0.375 0.0346273 0.419847
163 1 0.875 0.0346273 0.419847
43 1 0.375 0.20866 0.375179
91 1 0.875 0.20866 0.375179
15 1 0.125 0.284627 0.419847
63 1 0.625 0.284627 0.419847
18 1 0.375 0.342972 0.36768
66 1 0.875 0.342972 0.36768
44 1 0.375 0.400298 0.42796
92 1 0.875 0.400298 0.42796
36 1 0.125 0.45866 0.375179
84 1 0.625 0.45866 0.375179
12 1 0.125 0.592972 0.36768
19 1 0.375 0.534627 0.419847
60 1 0.625 0.592972 0.36768
67 1 0.875 0.534627 0.419847
136 1 0.125 0.650298 0.42796
184 1 0.625 0.650298 0.42796
139 1 0.375 0.70866 0.375179
187 1 0.875 0.70866 0.375179
111 1 0.125 0.784627 0.419847
159 1 0.625 0.784627 0.419847
114 1 0.375 0.842972 0.36768
162 1 0.875 0.842972 0.36768
140 1 0.375 0.900298 0.42796
188 1 0.875 0.900298 0.42796
132 1 0.125 0.95866 0.375179
180 1 0.625 0.95866 0.375179
20 1 0.125 0.168043 0.524412
68 1 0.625 0.168043 0.524412
141 1 0.375 0.0921617 0.479895
189 1 0.875 0.0921617 0.479895
138 1 0.125 0.0329116 0.5333
186 1 0.625 0.0329116 0.5333
24 1 0.375 0.226401 0.471377
72 1 0.875 0.226401 0.471377
47 1 0.375 0.282912 0.5333
95 1 0.875 0.282912 0.5333
41 1 0.125 0.342162 0.479895
89 1 0.625 0.342162 0.479895
22 1 0.375 0.418043 0.524412
70 1 0.875 0.418043 0.524412
16 1 0.125 0.476401 0.471377
64 1 0.625 0.476401 0.471377
42 1 0.125 0.532912 0.5333
45 1 0.375 0.592162 0.479895
90 1 0.625 0.532912 0.5333
93 1 0.875 0.592162 0.479895
116 1 0.125 0.668043 0.524412
164 1 0.625 0.668043 0.524412
120 1 0.375 0.726401 0.471377
143 1 0.375 0.782912 0.5333
168 1 0.875 0.726401 0.471377
191 1 0.875 0.782912 0.5333
137 1 0.125 0.842162 0.479895
185 1 0.625 0.842162 0.479895
118 1 0.375 0.918043 0.524412
166 1 0.875 0.918043 0.524412
112 1 0.125 0.976401 0.471377
160 1 0.625 0.976401 0.471377
119 1 0.375 0.114595 0.573126
167 1 0.875 0.114595 0.573126
46 1 0.125 0.230025 0.58181
94 1 0.625 0.230025 0.58181
21 1 0.125 0.364595 0.573126
69 1 0.625 0.364595 0.573126
48 1 0.375 0.480025 0.58181
96 1 0.875 0.480025 0.58181
23 1 0.375 0.614595 0.573126
71 1 0.875 0.614595 0.573126
142 1 0.125 0.730025 0.58181
190 1 0.625 0.730025 0.58181
117 1 0.125 0.864595 0.573126
165 1 0.625 0.864595 0.573126
144 1 0.375 0.980025 0.58181
192 1 0.875 0.980025 0.58181
