ITEM: TIMESTEP
51
ITEM: NUMBER OF ATOMS
192
ITEM: BOX BOUNDS pp pp pp
0.0000000000000000e+00 7.1176886540000002e+00
0.0000000000000000e+00 2.5858194780409800e+01
0.0000000000000000e+00 4.8301037599330101e+01
ITEM: ATOMS id type xs ys zs
1 1 0 0.121395 0
7 1 0.25 0.0650943 0.053449
49 1 0.5 0.121395 0
55 1 0.75 0.0650943 0.053449
2 1 3.36001e-17 0.315094 0.053449
26 1 0 0.179996 0.0628192
28 1 0.25 0.236825 0.00919034
50 1 0.5 0.315094 0.053449
74 1 0.5 0.179996 0.0628192
76 1 0.75 0.236825 0.00919034
3 1 0.25 0.371395 0
25 1 0 0.486825 0.00919034
29 1 0.25 0.429996 0.0628192
51 1 0.75 0.371395 0
73 1 0.5 0.486825 0.00919034
77 1 0.75 0.429996 0.0628192
97 1 0 0.621395 0
103 1 0.25 0.565094 0.053449
145 1 0.5 0.621395 0
151 1 0.75 0.565094 0.053449
98 1 3.56679e-17 0.815094 0.053449
122 1 4.00817e-17 0.679996 0.0628192
124 1 0.25 0.736825 0.00919034
146 1 0.5 0.815094 0.053449
170 1 0.5 0.679996 0.0628192
172 1 0.75 0.736825 0.00919034
99 1 0.25 0.871395 0
121 1 0 0.986825 0.00919034
125 1 0.25 0.929996 0.0628192
147 1 0.75 0.871395 0
169 1 0.5 0.986825 0.00919034
173 1 0.75 0.929996 0.0628192
4 1 0 0.00715404 0.107786
33 1 0.25 0.122177 0.11767
52 1 0.5 0.00715404 0.107786
81 1 0.75 0.122177 0.11767
5 1 1 0.199689 0.16244
8 1 0.25 0.257154 0.107786
53 1 0.5 0.199689 0.16244
56 1 0.75 0.257154 0.107786
9 1 0.25 0.449689 0.16244
27 1 0 0.372177 0.11767
57 1 0.75 0.449689 0.16244
75 1 0.5 0.372177 0.11767
100 1 1.04306e-17 0.507154 0.107786
129 1 0.25 0.622177 0.11767
148 1 0.5 0.507154 0.107786
177 1 0.75 0.622177 0.11767
101 1 0 0.699689 0.16244
104 1 0.25 0.757154 0.107786
149 1 0.5 0.699689 0.16244
152 1 0.75 0.757154 0.107786
105 1 0.25 0.949689 0.16244
123 1 1.74769e-17 0.872177 0.11767
153 1 0.75 0.949689 0.16244
171 1 0.5 0.872177 0.11767
13 1 0.25 0.142091 0.217322
30 1 3.41948e-17 0.0646243 0.17226
37 1 0.25 0.00705467 0.226535
61 1 0.75 0.142091 0.217322
78 1 0.5 0.0646243 0.17226
85 1 0.75 0.00705467 0.226535
31 1 4.88341e-17 0.257055 0.226535
34 1 0.25 0.314624 0.17226
79 1 0.5 0.257055 0.226535
82 1 0.75 0.314624 0.17226
6 1 0 0.392091 0.217322
54 1 0.5 0.392091 0.217322
109 1 0.25 0.642091 0.217322
126 1 0 0.564624 0.17226
133 1 0.25 0.507055 0.226535
157 1 0.75 0.642091 0.217322
174 1 0.5 0.564624 0.17226
181 1 0.75 0.507055 0.226535
127 1 4.16389e-17 0.757055 0.226535
130 1 0.25 0.814624 0.17226
175 1 0.5 0.757055 0.226535
178 1 0.75 0.814624 0.17226
102 1 7.3366e-17 0.892091 0.217322
150 1 0.5 0.892091 0.217322
10 1 0 0.0845159 0.271382
17 1 0.275 0.051941 0.334405
58 1 0.5 0.0845159 0.271382
65 1 0.775 0.051941 0.334405
11 1 0.025 0.301941 0.334405
38 1 0.25 0.199479 0.281285
59 1 0.525 0.301941 0.334405
86 1 0.75 0.199479 0.281285
14 1 0.25 0.334516 0.271382
32 1 0 0.449479 0.281285
62 1 0.75 0.334516 0.271382
80 1 0.5 0.449479 0.281285
106 1 0 0.584516 0.271382
113 1 0.275 0.551941 0.334405
154 1 0.5 0.584516 0.271382
161 1 0.775 0.551941 0.334405
107 1 0.025 0.801941 0.334405
134 1 0.25 0.699479 0.281285
155 1 0.525 0.801941 0.334405
182 1 0.75 0.699479 0.281285
110 1 0.25 0.834516 0.271382
128 1 1 0.949479 0.281285
158 1 0.75 0.834516 0.271382
176 1 0.5 0.949479 0.281285
43 1 0.275 0.109329 0.398369
91 1 0.775 0.109329 0.398369
35 1 0.025 0.166904 0.344309
83 1 0.525 0.166904 0.344309
18 1 0.275 0.244365 0.389155
66 1 0.775 0.244365 0.389155
12 1 0.025 0.494365 0.389155
36 1 0.025 0.359329 0.398369
39 1 0.275 0.416904 0.344309
60 1 0.525 0.494365 0.389155
84 1 0.525 0.359329 0.398369
87 1 0.775 0.416904 0.344309
139 1 0.275 0.609329 0.398369
187 1 0.775 0.609329 0.398369
131 1 0.025 0.666904 0.344309
179 1 0.525 0.666904 0.344309
114 1 0.275 0.744365 0.389155
162 1 0.775 0.744365 0.389155
108 1 0.025 0.994365 0.389155
132 1 0.025 0.859329 0.398369
135 1 0.275 0.916904 0.344309
156 1 0.525 0.994365 0.389155
180 1 0.525 0.859329 0.398369
183 1 0.775 0.916904 0.344309
24 1 0.275 0.129242 0.49802
40 1 0.025 0.0517309 0.45325
72 1 0.775 0.129242 0.49802
88 1 0.525 0.0517309 0.45325
15 1 0.025 0.186795 0.44343
63 1 0.525 0.186795 0.44343
44 1 0.275 0.301731 0.45325
92 1 0.775 0.301731 0.45325
16 1 0.025 0.379242 0.49802
19 1 0.275 0.436795 0.44343
64 1 0.525 0.379242 0.49802
67 1 0.775 0.436795 0.44343
120 1 0.275 0.629242 0.49802
136 1 0.025 0.551731 0.45325
168 1 0.775 0.629242 0.49802
184 1 0.525 0.551731 0.45325
111 1 0.025 0.686795 0.44343
159 1 0.525 0.686795 0.44343
140 1 0.275 0.801731 0.45325
188 1 0.775 0.801731 0.45325
112 1 0.025 0.879242 0.49802
115 1 0.275 0.936795 0.44343
160 1 0.525 0.879242 0.49802
163 1 0.775 0.936795 0.44343
20 1 0.025 0.071424 0.552871
68 1 0.525 0.071424 0.552871
47 1 0.275 0.186326 0.562242
95 1 0.775 0.186326 0.562242
22 1 0.275 0.321424 0.552871
41 1 0.025 0.244266 0.507904
70 1 0.775 0.321424 0.552871
89 1 0.525 0.244266 0.507904
42 1 0.025 0.436326 0.562242
45 1 0.275 0.494266 0.507904
90 1 0.525 0.436326 0.562242
93 1 0.775 0.494266 0.507904
116 1 0.025 0.571424 0.552871
164 1 0.525 0.571424 0.552871
143 1 0.275 0.686326 0.562242
191 1 0.775 0.686326 0.562242
118 1 0.275 0.821424 0.552871
137 1 0.025 0.744266 0.507904
166 1 0.775 0.821424 0.552871
185 1 0.525 0.744266 0.507904
138 1 0.025 0.936326 0.562242
141 1 0.275 0.994266 0.507904
186 1 0.525 0.936326 0.562242
189 1 0.775 0.994266 0.507904
46 1 0.025 0.130025 0.615691
94 1 0.525 0.130025 0.615691
119 1 0.275 0.014595 0.6065
167 1 0.775 0.014595 0.6065
21 1 0.025 0.264595 0.6065
69 1 0.525 0.264595 0.6065
48 1 0.275 0.380025 0.615691
96 1 0.775 0.380025 0.615691
23 1 0.275 0.514595 0.6065
71 1 0.775 0.514595 0.6065
142 1 0.025 0.630025 0.615691
190 1 0.525 0.630025 0.615691
117 1 0.025 0.764595 0.6065
165 1 0.525 0.764595 0.6065
144 1 0.275 0.880025 0.615691
192 1 0.775 0.880025 0.615691
