ITEM: TIMESTEP
106
ITEM: NUMBER OF ATOMS
192
ITEM: BOX BOUNDS pp pp pp
0.0000000000000000e+00 5.9011998176000002e+00
0.0000000000000000e+00 2.1324426539756200e+01
0.0000000000000000e+00 4.3042699813799999e+01
ITEM: ATOMS id type xs ys zs
1 1 0 0.121395 0
7 1 0.25 0.0685083 0.0484953
26 1 1 0.183377 0.0573886
49 1 0.5 0.121395 0
55 1 0.75 0.0685083 0.0484953
74 1 0.5 0.183377 0.0573886
2 1 0 0.318508 0.0484953
3 1 0.25 0.371395 0
28 1 0.25 0.236825 0.00868461
50 1 0.5 0.318508 0.0484953
51 1 0.75 0.371395 0
76 1 0.75 0.236825 0.00868461
25 1 0 0.486825 0.00868461
29 1 0.25 0.433377 0.0573886
73 1 0.5 0.486825 0.00868461
77 1 0.75 0.433377 0.0573886
103 1 0.25 0.568508 0.0484953
151 1 0.75 0.568508 0.0484953
97 1 0 0.621395 0
122 1 1 0.683377 0.0573886
124 1 0.25 0.736825 0.00868461
145 1 0.5 0.621395 0
170 1 0.5 0.683377 0.0573886
172 1 0.75 0.736825 0.00868461
98 1 1.50508e-16 0.818508 0.0484953
99 1 0.25 0.871395 0
121 1 0 0.986825 0.00868461
125 1 0.25 0.933377 0.0573886
146 1 0.5 0.818508 0.0484953
147 1 0.75 0.871395 0
169 1 0.5 0.986825 0.00868461
173 1 0.75 0.933377 0.0573886
4 1 0 0.00925805 0.101893
30 1 0 0.0667923 0.161984
33 1 0.25 0.125018 0.110406
52 1 0.5 0.00925805 0.101893
78 1 0.5 0.0667923 0.161984
81 1 0.75 0.125018 0.110406
5 1 0 0.201122 0.153728
53 1 0.5 0.201122 0.153728
8 1 0.25 0.259258 0.101893
27 1 0 0.375018 0.110406
34 1 0.25 0.316792 0.161984
56 1 0.75 0.259258 0.101893
75 1 0.5 0.375018 0.110406
82 1 0.75 0.316792 0.161984
9 1 0.25 0.451122 0.153728
57 1 0.75 0.451122 0.153728
100 1 1 0.509258 0.101893
126 1 0 0.566792 0.161984
148 1 0.5 0.509258 0.101893
174 1 0.5 0.566792 0.161984
101 1 0 0.701122 0.153728
104 1 0.25 0.759258 0.101893
129 1 0.25 0.625018 0.110406
149 1 0.5 0.701122 0.153728
152 1 0.75 0.759258 0.101893
177 1 0.75 0.625018 0.110406
105 1 0.25 0.951122 0.153728
123 1 2.18999e-17 0.875018 0.110406
130 1 0.25 0.816792 0.161984
153 1 0.75 0.951122 0.153728
171 1 0.5 0.875018 0.110406
178 1 0.75 0.816792 0.161984
10 1 1 0.0845017 0.259453
13 1 0.25 0.142759 0.206488
37 1 0.25 0.0084478 0.214139
58 1 0.5 0.0845017 0.259453
61 1 0.75 0.142759 0.206488
85 1 0.75 0.0084478 0.214139
38 1 0.25 0.200198 0.264838
86 1 0.75 0.200198 0.264838
6 1 1 0.392759 0.206488
14 1 0.25 0.334502 0.259453
31 1 2.09346e-16 0.258448 0.214139
54 1 0.5 0.392759 0.206488
62 1 0.75 0.334502 0.259453
79 1 0.5 0.258448 0.214139
32 1 0 0.450198 0.264838
80 1 0.5 0.450198 0.264838
106 1 1.50508e-16 0.584502 0.259453
133 1 0.25 0.508448 0.214139
154 1 0.5 0.584502 0.259453
181 1 0.75 0.508448 0.214139
109 1 0.25 0.642759 0.206488
127 1 1.46313e-17 0.758448 0.214139
134 1 0.25 0.700198 0.264838
157 1 0.75 0.642759 0.206488
175 1 0.5 0.758448 0.214139
182 1 0.75 0.700198 0.264838
102 1 0 0.892759 0.206488
110 1 0.25 0.834502 0.259453
128 1 1.50508e-16 0.950198 0.264838
150 1 0.5 0.892759 0.206488
158 1 0.75 0.834502 0.259453
176 1 0.5 0.950198 0.264838
17 1 0.35 0.126221 0.316972
65 1 0.85 0.126221 0.316972
35 1 0.1 0.241918 0.322357
83 1 0.6 0.241918 0.322357
11 1 0.1 0.376221 0.316972
59 1 0.6 0.376221 0.316972
39 1 0.35 0.491918 0.322357
87 1 0.85 0.491918 0.322357
113 1 0.35 0.626221 0.316972
161 1 0.85 0.626221 0.316972
131 1 0.1 0.741918 0.322357
179 1 0.6 0.741918 0.322357
107 1 0.1 0.876221 0.316972
155 1 0.6 0.876221 0.316972
135 1 0.35 0.991918 0.322357
183 1 0.85 0.991918 0.322357
40 1 0.1 0.125298 0.428083
43 1 0.35 0.18366 0.375323
88 1 0.6 0.125298 0.428083
91 1 0.85 0.18366 0.375323
108 1 0.1 0.0679718 0.367671
156 1 0.6 0.0679718 0.367671
115 1 0.35 0.00962734 0.419826
163 1 0.85 0.00962734 0.419826
15 1 0.1 0.259627 0.419826
63 1 0.6 0.259627 0.419826
18 1 0.35 0.317972 0.367671
44 1 0.35 0.375298 0.428083
66 1 0.85 0.317972 0.367671
92 1 0.85 0.375298 0.428083
36 1 0.1 0.43366 0.375323
84 1 0.6 0.43366 0.375323
12 1 0.1 0.567972 0.367671
19 1 0.35 0.509627 0.419826
60 1 0.6 0.567972 0.367671
67 1 0.85 0.509627 0.419826
136 1 0.1 0.625298 0.428083
184 1 0.6 0.625298 0.428083
139 1 0.35 0.68366 0.375323
187 1 0.85 0.68366 0.375323
111 1 0.1 0.759627 0.419826
159 1 0.6 0.759627 0.419826
114 1 0.35 0.817972 0.367671
162 1 0.85 0.817972 0.367671
140 1 0.35 0.875298 0.428083
188 1 0.85 0.875298 0.428083
132 1 0.1 0.93366 0.375323
180 1 0.6 0.93366 0.375323
20 1 0.1 0.143043 0.524422
68 1 0.6 0.143043 0.524422
141 1 0.35 0.0671617 0.479917
189 1 0.85 0.0671617 0.479917
138 1 0.1 0.00791161 0.533315
186 1 0.6 0.00791161 0.533315
24 1 0.35 0.201401 0.471405
72 1 0.85 0.201401 0.471405
47 1 0.35 0.257912 0.533315
95 1 0.85 0.257912 0.533315
22 1 0.35 0.393043 0.524422
41 1 0.1 0.317162 0.479917
70 1 0.85 0.393043 0.524422
89 1 0.6 0.317162 0.479917
16 1 0.1 0.451401 0.471405
64 1 0.6 0.451401 0.471405
42 1 0.1 0.507912 0.533315
45 1 0.35 0.567162 0.479917
90 1 0.6 0.507912 0.533315
93 1 0.85 0.567162 0.479917
116 1 0.1 0.643043 0.524422
164 1 0.6 0.643043 0.524422
120 1 0.35 0.701401 0.471405
143 1 0.35 0.757912 0.533315
168 1 0.85 0.701401 0.471405
191 1 0.85 0.757912 0.533315
137 1 0.1 0.817162 0.479917
185 1 0.6 0.817162 0.479917
118 1 0.35 0.893043 0.524422
166 1 0.85 0.893043 0.524422
112 1 0.1 0.951401 0.471405
160 1 0.6 0.951401 0.471405
119 1 0.35 0.089595 0.573126
167 1 0.85 0.089595 0.573126
46 1 0.1 0.205025 0.58181
94 1 0.6 0.205025 0.58181
21 1 0.1 0.339595 0.573126
69 1 0.6 0.339595 0.573126
48 1 0.35 0.455025 0.58181
96 1 0.85 0.455025 0.58181
23 1 0.35 0.589595 0.573126
71 1 0.85 0.589595 0.573126
142 1 0.1 0.705025 0.58181
190 1 0.6 0.705025 0.58181
117 1 0.1 0.839595 0.573126
165 1 0.6 0.839595 0.573126
144 1 0.35 0.955025 0.58181
192 1 0.85 0.955025 0.58181
