ITEM: TIMESTEP
70
ITEM: NUMBER OF ATOMS
192
ITEM: BOX BOUNDS pp pp pp
0.0000000000000000e+00 5.9011998176000002e+00
0.0000000000000000e+00 2.1324426539756200e+01
0.0000000000000000e+00 4.3042699813799999e+01
ITEM: ATOMS id type xs ys zs
1 1 0 0.121395 0
7 1 0.25 0.0685083 0.0484457
26 1 1 0.183377 0.0573537
49 1 0.5 0.121395 0
55 1 0.75 0.0685083 0.0484457
74 1 0.5 0.183377 0.0573537
2 1 0 0.318508 0.0484457
3 1 0.25 0.371395 0
28 1 0.25 0.236825 0.00868461
50 1 0.5 0.318508 0.0484457
51 1 0.75 0.371395 0
76 1 0.75 0.236825 0.00868461
25 1 0 0.486825 0.00868461
29 1 0.25 0.433377 0.0573537
73 1 0.5 0.486825 0.00868461
77 1 0.75 0.433377 0.0573537
103 1 0.25 0.568508 0.0484457
151 1 0.75 0.568508 0.0484457
97 1 0 0.621395 0
122 1 1 0.683377 0.0573537
124 1 0.25 0.736825 0.00868461
145 1 0.5 0.621395 0
170 1 0.5 0.683377 0.0573537
172 1 0.75 0.736825 0.00868461
98 1 1.50508e-16 0.818508 0.0484457
99 1 0.25 0.871395 0
121 1 0 0.986825 0.00868461
125 1 0.25 0.933377 0.0573537
146 1 0.5 0.818508 0.0484457
147 1 0.75 0.871395 0
169 1 0.5 0.986825 0.00868461
173 1 0.75 0.933377 0.0573537
4 1 0 0.00925805 0.101781
30 1 0 0.0667923 0.162014
33 1 0.25 0.125018 0.110321
52 1 0.5 0.00925805 0.101781
78 1 0.5 0.0667923 0.162014
81 1 0.75 0.125018 0.110321
5 1 0 0.201122 0.153419
53 1 0.5 0.201122 0.153419
8 1 0.25 0.259258 0.101781
27 1 0 0.375018 0.110321
34 1 0.25 0.316792 0.162014
56 1 0.75 0.259258 0.101781
75 1 0.5 0.375018 0.110321
82 1 0.75 0.316792 0.162014
9 1 0.25 0.451122 0.153419
57 1 0.75 0.451122 0.153419
100 1 1 0.509258 0.101781
126 1 0 0.566792 0.162014
148 1 0.5 0.509258 0.101781
174 1 0.5 0.566792 0.162014
101 1 0 0.701122 0.153419
104 1 0.25 0.759258 0.101781
129 1 0.25 0.625018 0.110321
149 1 0.5 0.701122 0.153419
152 1 0.75 0.759258 0.101781
177 1 0.75 0.625018 0.110321
105 1 0.25 0.951122 0.153419
123 1 2.18999e-17 0.875018 0.110321
130 1 0.25 0.816792 0.162014
153 1 0.75 0.951122 0.153419
171 1 0.5 0.875018 0.110321
178 1 0.75 0.816792 0.162014
10 1 1 0.0845017 0.256735
13 1 0.25 0.142759 0.206168
37 1 0.25 0.0084478 0.213829
58 1 0.5 0.0845017 0.256735
61 1 0.75 0.142759 0.206168
85 1 0.75 0.0084478 0.213829
38 1 0.25 0.200198 0.266584
86 1 0.75 0.200198 0.266584
6 1 1 0.392759 0.206168
14 1 0.25 0.334502 0.256735
31 1 2.09346e-16 0.258448 0.213829
54 1 0.5 0.392759 0.206168
62 1 0.75 0.334502 0.256735
79 1 0.5 0.258448 0.213829
32 1 0 0.450198 0.266584
80 1 0.5 0.450198 0.266584
106 1 1.50508e-16 0.584502 0.256735
133 1 0.25 0.508448 0.213829
154 1 0.5 0.584502 0.256735
181 1 0.75 0.508448 0.213829
109 1 0.25 0.642759 0.206168
127 1 1.46313e-17 0.758448 0.213829
134 1 0.25 0.700198 0.266584
157 1 0.75 0.642759 0.206168
175 1 0.5 0.758448 0.213829
182 1 0.75 0.700198 0.266584
102 1 0 0.892759 0.206168
110 1 0.25 0.834502 0.256735
128 1 1.50508e-16 0.950198 0.266584
150 1 0.5 0.892759 0.206168
158 1 0.75 0.834502 0.256735
176 1 0.5 0.950198 0.266584
17 1 0.308333 0.0845548 0.315226
65 1 0.808333 0.0845548 0.315226
35 1 0.0583333 0.200251 0.325076
83 1 0.558333 0.200251 0.325076
11 1 0.0583333 0.334555 0.315226
59 1 0.558333 0.334555 0.315226
39 1 0.308333 0.450251 0.325076
87 1 0.808333 0.450251 0.325076
113 1 0.308333 0.584555 0.315226
161 1 0.808333 0.584555 0.315226
131 1 0.0583333 0.700251 0.325076
179 1 0.558333 0.700251 0.325076
107 1 0.0583333 0.834555 0.315226
155 1 0.558333 0.834555 0.315226
135 1 0.308333 0.950251 0.325076
183 1 0.808333 0.950251 0.325076
40 1 0.0583333 0.0836314 0.428391
43 1 0.308333 0.141994 0.375642
88 1 0.558333 0.0836314 0.428391
91 1 0.808333 0.141994 0.375642
108 1 0.0583333 0.0263051 0.367982
156 1 0.558333 0.0263051 0.367982
15 1 0.0583333 0.217961 0.419797
63 1 0.558333 0.217961 0.419797
18 1 0.308333 0.276305 0.367982
36 1 0.0583333 0.391994 0.375642
44 1 0.308333 0.333631 0.428391
66 1 0.808333 0.276305 0.367982
84 1 0.558333 0.391994 0.375642
92 1 0.808333 0.333631 0.428391
12 1 0.0583333 0.526305 0.367982
19 1 0.308333 0.467961 0.419797
60 1 0.558333 0.526305 0.367982
67 1 0.808333 0.467961 0.419797
136 1 0.0583333 0.583631 0.428391
184 1 0.558333 0.583631 0.428391
139 1 0.308333 0.641994 0.375642
187 1 0.808333 0.641994 0.375642
111 1 0.0583333 0.717961 0.419797
114 1 0.308333 0.776305 0.367982
159 1 0.558333 0.717961 0.419797
162 1 0.808333 0.776305 0.367982
140 1 0.308333 0.833631 0.428391
188 1 0.808333 0.833631 0.428391
115 1 0.308333 0.967961 0.419797
132 1 0.0583333 0.891994 0.375642
163 1 0.808333 0.967961 0.419797
180 1 0.558333 0.891994 0.375642
20 1 0.0583333 0.101377 0.524457
24 1 0.308333 0.159735 0.471489
68 1 0.558333 0.101377 0.524457
72 1 0.808333 0.159735 0.471489
141 1 0.308333 0.0254951 0.48003
189 1 0.808333 0.0254951 0.48003
47 1 0.308333 0.216245 0.533365
95 1 0.808333 0.216245 0.533365
22 1 0.308333 0.351377 0.524457
41 1 0.0583333 0.275495 0.48003
70 1 0.808333 0.351377 0.524457
89 1 0.558333 0.275495 0.48003
16 1 0.0583333 0.409735 0.471489
64 1 0.558333 0.409735 0.471489
42 1 0.0583333 0.466245 0.533365
45 1 0.308333 0.525495 0.48003
90 1 0.558333 0.466245 0.533365
93 1 0.808333 0.525495 0.48003
116 1 0.0583333 0.601377 0.524457
164 1 0.558333 0.601377 0.524457
120 1 0.308333 0.659735 0.471489
137 1 0.0583333 0.775495 0.48003
143 1 0.308333 0.716245 0.533365
168 1 0.808333 0.659735 0.471489
185 1 0.558333 0.775495 0.48003
191 1 0.808333 0.716245 0.533365
118 1 0.308333 0.851377 0.524457
166 1 0.808333 0.851377 0.524457
112 1 0.0583333 0.909735 0.471489
138 1 0.0583333 0.966245 0.533365
160 1 0.558333 0.909735 0.471489
186 1 0.558333 0.966245 0.533365
46 1 0.0583333 0.163358 0.58181
94 1 0.558333 0.163358 0.58181
119 1 0.308333 0.0479283 0.573126
167 1 0.808333 0.0479283 0.573126
21 1 0.0583333 0.297928 0.573126
69 1 0.558333 0.297928 0.573126
48 1 0.308333 0.413358 0.58181
96 1 0.808333 0.413358 0.58181
23 1 0.308333 0.547928 0.573126
71 1 0.808333 0.547928 0.573126
117 1 0.0583333 0.797928 0.573126
142 1 0.0583333 0.663358 0.58181
165 1 0.558333 0.797928 0.573126
190 1 0.558333 0.663358 0.58181
144 1 0.308333 0.913358 0.58181
192 1 0.808333 0.913358 0.58181
