ITEM: TIMESTEP
148
ITEM: NUMBER OF ATOMS
192
ITEM: BOX BOUNDS pp pp pp
0.0000000000000000e+00 5.9011998176000002e+00
0.0000000000000000e+00 2.1324426539756200e+01
0.0000000000000000e+00 4.3042699813799999e+01
ITEM: ATOMS id type xs ys zs
1 1 0 0.121395 0
7 1 0.25 0.0685083 0.0483977
26 1 1 0.183377 0.0572981
49 1 0.5 0.121395 0
55 1 0.75 0.0685083 0.0483977
74 1 0.5 0.183377 0.0572981
2 1 0 0.318508 0.0483977
3 1 0.25 0.371395 0
28 1 0.25 0.236825 0.00868461
50 1 0.5 0.318508 0.0483977
51 1 0.75 0.371395 0
76 1 0.75 0.236825 0.00868461
25 1 0 0.486825 0.00868461
29 1 0.25 0.433377 0.0572981
73 1 0.5 0.486825 0.00868461
77 1 0.75 0.433377 0.0572981
103 1 0.25 0.568508 0.0483977
151 1 0.75 0.568508 0.0483977
97 1 0 0.621395 0
122 1 1 0.683377 0.0572981
124 1 0.25 0.736825 0.00868461
145 1 0.5 0.621395 0
170 1 0.5 0.683377 0.0572981
172 1 0.75 0.736825 0.00868461
98 1 1.50508e-16 0.818508 0.0483977
99 1 0.25 0.871395 0
121 1 0 0.986825 0.00868461
125 1 0.25 0.933377 0.0572981
146 1 0.5 0.818508 0.0483977
147 1 0.75 0.871395 0
169 1 0.5 0.986825 0.00868461
173 1 0.75 0.933377 0.0572981
4 1 0 0.00925805 0.101676
30 1 0 0.0667923 0.161637
33 1 0.25 0.125018 0.110219
52 1 0.5 0.00925805 0.101676
78 1 0.5 0.0667923 0.161637
81 1 0.75 0.125018 0.110219
5 1 0 0.201122 0.153437
53 1 0.5 0.201122 0.153437
8 1 0.25 0.259258 0.101676
27 1 0 0.375018 0.110219
34 1 0.25 0.316792 0.161637
56 1 0.75 0.259258 0.101676
75 1 0.5 0.375018 0.110219
82 1 0.75 0.316792 0.161637
9 1 0.25 0.451122 0.153437
57 1 0.75 0.451122 0.153437
100 1 1 0.509258 0.101676
126 1 0 0.566792 0.161637
148 1 0.5 0.509258 0.101676
174 1 0.5 0.566792 0.161637
101 1 0 0.701122 0.153437
104 1 0.25 0.759258 0.101676
129 1 0.25 0.625018 0.110219
149 1 0.5 0.701122 0.153437
152 1 0.75 0.759258 0.101676
177 1 0.75 0.625018 0.110219
105 1 0.25 0.951122 0.153437
123 1 2.18999e-17 0.875018 0.110219
130 1 0.25 0.816792 0.161637
153 1 0.75 0.951122 0.153437
171 1 0.5 0.875018 0.110219
178 1 0.75 0.816792 0.161637
10 1 1 0.0845017 0.259641
13 1 0.25 0.142759 0.206246
37 1 0.25 0.0084478 0.213794
58 1 0.5 0.0845017 0.259641
61 1 0.75 0.142759 0.206246
85 1 0.75 0.0084478 0.213794
38 1 0.25 0.200198 0.263376
86 1 0.75 0.200198 0.263376
6 1 1 0.392759 0.206246
14 1 0.25 0.334502 0.259641
31 1 2.09346e-16 0.258448 0.213794
54 1 0.5 0.392759 0.206246
62 1 0.75 0.334502 0.259641
79 1 0.5 0.258448 0.213794
32 1 0 0.450198 0.263376
80 1 0.5 0.450198 0.263376
106 1 1.50508e-16 0.584502 0.259641
133 1 0.25 0.508448 0.213794
154 1 0.5 0.584502 0.259641
181 1 0.75 0.508448 0.213794
109 1 0.25 0.642759 0.206246
127 1 1.46313e-17 0.758448 0.213794
134 1 0.25 0.700198 0.263376
157 1 0.75 0.642759 0.206246
175 1 0.5 0.758448 0.213794
182 1 0.75 0.700198 0.263376
102 1 0 0.892759 0.206246
110 1 0.25 0.834502 0.259641
128 1 1.50508e-16 0.950198 0.263376
150 1 0.5 0.892759 0.206246
158 1 0.75 0.834502 0.259641
176 1 0.5 0.950198 0.263376
17 1 0.4 0.176221 0.318435
65 1 0.9 0.176221 0.318435
135 1 0.4 0.0419178 0.32217
183 1 0.9 0.0419178 0.32217
35 1 0.15 0.291918 0.32217
83 1 0.65 0.291918 0.32217
11 1 0.15 0.426221 0.318435
59 1 0.65 0.426221 0.318435
39 1 0.4 0.541918 0.32217
87 1 0.9 0.541918 0.32217
113 1 0.4 0.676221 0.318435
161 1 0.9 0.676221 0.318435
131 1 0.15 0.791918 0.32217
179 1 0.65 0.791918 0.32217
107 1 0.15 0.926221 0.318435
155 1 0.65 0.926221 0.318435
40 1 0.15 0.175298 0.428374
88 1 0.65 0.175298 0.428374
108 1 0.15 0.117972 0.368016
156 1 0.65 0.117972 0.368016
115 1 0.4 0.0596273 0.420173
163 1 0.9 0.0596273 0.420173
43 1 0.4 0.23366 0.375564
91 1 0.9 0.23366 0.375564
15 1 0.15 0.309627 0.420173
63 1 0.65 0.309627 0.420173
18 1 0.4 0.367972 0.368016
66 1 0.9 0.367972 0.368016
44 1 0.4 0.425298 0.428374
92 1 0.9 0.425298 0.428374
36 1 0.15 0.48366 0.375564
84 1 0.65 0.48366 0.375564
19 1 0.4 0.559627 0.420173
67 1 0.9 0.559627 0.420173
12 1 0.15 0.617972 0.368016
60 1 0.65 0.617972 0.368016
136 1 0.15 0.675298 0.428374
184 1 0.65 0.675298 0.428374
139 1 0.4 0.73366 0.375564
187 1 0.9 0.73366 0.375564
111 1 0.15 0.809627 0.420173
159 1 0.65 0.809627 0.420173
114 1 0.4 0.867972 0.368016
162 1 0.9 0.867972 0.368016
140 1 0.4 0.925298 0.428374
188 1 0.9 0.925298 0.428374
132 1 0.15 0.98366 0.375564
180 1 0.65 0.98366 0.375564
20 1 0.15 0.193043 0.524512
68 1 0.65 0.193043 0.524512
141 1 0.4 0.117162 0.480135
189 1 0.9 0.117162 0.480135
138 1 0.15 0.0579116 0.533413
186 1 0.65 0.0579116 0.533413
112 1 0.15 0.00140133 0.471591
160 1 0.65 0.00140133 0.471591
24 1 0.4 0.251401 0.471591
72 1 0.9 0.251401 0.471591
47 1 0.4 0.307912 0.533413
95 1 0.9 0.307912 0.533413
41 1 0.15 0.367162 0.480135
89 1 0.65 0.367162 0.480135
22 1 0.4 0.443043 0.524512
70 1 0.9 0.443043 0.524512
16 1 0.15 0.501401 0.471591
64 1 0.65 0.501401 0.471591
42 1 0.15 0.557912 0.533413
90 1 0.65 0.557912 0.533413
45 1 0.4 0.617162 0.480135
93 1 0.9 0.617162 0.480135
116 1 0.15 0.693043 0.524512
164 1 0.65 0.693043 0.524512
120 1 0.4 0.751401 0.471591
168 1 0.9 0.751401 0.471591
143 1 0.4 0.807912 0.533413
191 1 0.9 0.807912 0.533413
137 1 0.15 0.867162 0.480135
185 1 0.65 0.867162 0.480135
118 1 0.4 0.943043 0.524512
166 1 0.9 0.943043 0.524512
119 1 0.4 0.139595 0.573126
167 1 0.9 0.139595 0.573126
144 1 0.4 0.00502499 0.58181
192 1 0.9 0.00502499 0.58181
46 1 0.15 0.255025 0.58181
94 1 0.65 0.255025 0.58181
21 1 0.15 0.389595 0.573126
69 1 0.65 0.389595 0.573126
48 1 0.4 0.505025 0.58181
96 1 0.9 0.505025 0.58181
23 1 0.4 0.639595 0.573126
71 1 0.9 0.639595 0.573126
142 1 0.15 0.755025 0.58181
190 1 0.65 0.755025 0.58181
117 1 0.15 0.889595 0.573126
165 1 0.65 0.889595 0.573126
