ITEM: TIMESTEP
55
ITEM: NUMBER OF ATOMS
192
ITEM: BOX BOUNDS pp pp pp
0.0000000000000000e+00 5.9011998176000002e+00
0.0000000000000000e+00 2.1324426539756200e+01
0.0000000000000000e+00 4.3042699813799999e+01
ITEM: ATOMS id type xs ys zs
1 1 0 0.121395 0
7 1 0.25 0.0685083 0.0485682
26 1 1 0.183377 0.0574596
49 1 0.5 0.121395 0
55 1 0.75 0.0685083 0.0485682
74 1 0.5 0.183377 0.0574596
2 1 0 0.318508 0.0485682
3 1 0.25 0.371395 0
28 1 0.25 0.236825 0.00868461
50 1 0.5 0.318508 0.0485682
51 1 0.75 0.371395 0
76 1 0.75 0.236825 0.00868461
25 1 0 0.486825 0.00868461
29 1 0.25 0.433377 0.0574596
73 1 0.5 0.486825 0.00868461
77 1 0.75 0.433377 0.0574596
103 1 0.25 0.568508 0.0485682
151 1 0.75 0.568508 0.0485682
97 1 0 0.621395 0
122 1 1 0.683377 0.0574596
124 1 0.25 0.736825 0.00868461
145 1 0.5 0.621395 0
170 1 0.5 0.683377 0.0574596
172 1 0.75 0.736825 0.00868461
98 1 1.50508e-16 0.818508 0.0485682
99 1 0.25 0.871395 0
121 1 0 0.986825 0.00868461
125 1 0.25 0.933377 0.0574596
146 1 0.5 0.818508 0.0485682
147 1 0.75 0.871395 0
169 1 0.5 0.986825 0.00868461
173 1 0.75 0.933377 0.0574596
4 1 0 0.00925805 0.102033
30 1 0 0.0667923 0.16239
33 1 0.25 0.125018 0.110559
52 1 0.5 0.00925805 0.102033
78 1 0.5 0.0667923 0.16239
81 1 0.75 0.125018 0.110559
5 1 0 0.201122 0.15383
53 1 0.5 0.201122 0.15383
8 1 0.25 0.259258 0.102033
27 1 0 0.375018 0.110559
34 1 0.25 0.316792 0.16239
56 1 0.75 0.259258 0.102033
75 1 0.5 0.375018 0.110559
82 1 0.75 0.316792 0.16239
9 1 0.25 0.451122 0.15383
57 1 0.75 0.451122 0.15383
100 1 1 0.509258 0.102033
126 1 0 0.566792 0.16239
148 1 0.5 0.509258 0.102033
174 1 0.5 0.566792 0.16239
101 1 0 0.701122 0.15383
104 1 0.25 0.759258 0.102033
129 1 0.25 0.625018 0.110559
149 1 0.5 0.701122 0.15383
152 1 0.75 0.759258 0.102033
177 1 0.75 0.625018 0.110559
105 1 0.25 0.951122 0.15383
123 1 2.18999e-17 0.875018 0.110559
130 1 0.25 0.816792 0.16239
153 1 0.75 0.951122 0.15383
171 1 0.5 0.875018 0.110559
178 1 0.75 0.816792 0.16239
10 1 1 0.0845017 0.257209
13 1 0.25 0.142759 0.206537
37 1 0.25 0.0084478 0.214342
58 1 0.5 0.0845017 0.257209
61 1 0.75 0.142759 0.206537
85 1 0.75 0.0084478 0.214342
38 1 0.25 0.200198 0.267108
86 1 0.75 0.200198 0.267108
6 1 1 0.392759 0.206537
14 1 0.25 0.334502 0.257209
31 1 2.09346e-16 0.258448 0.214342
54 1 0.5 0.392759 0.206537
62 1 0.75 0.334502 0.257209
79 1 0.5 0.258448 0.214342
32 1 0 0.450198 0.267108
80 1 0.5 0.450198 0.267108
106 1 1.50508e-16 0.584502 0.257209
133 1 0.25 0.508448 0.214342
154 1 0.5 0.584502 0.257209
181 1 0.75 0.508448 0.214342
109 1 0.25 0.642759 0.206537
127 1 1.46313e-17 0.758448 0.214342
134 1 0.25 0.700198 0.267108
157 1 0.75 0.642759 0.206537
175 1 0.5 0.758448 0.214342
182 1 0.75 0.700198 0.267108
102 1 0 0.892759 0.206537
110 1 0.25 0.834502 0.257209
128 1 1.50508e-16 0.950198 0.267108
150 1 0.5 0.892759 0.206537
158 1 0.75 0.834502 0.257209
176 1 0.5 0.950198 0.267108
17 1 0.291667 0.0678882 0.314702
35 1 0.0416667 0.183585 0.324602
65 1 0.791667 0.0678882 0.314702
83 1 0.541667 0.183585 0.324602
11 1 0.0416667 0.317888 0.314702
59 1 0.541667 0.317888 0.314702
39 1 0.291667 0.433585 0.324602
87 1 0.791667 0.433585 0.324602
113 1 0.291667 0.567888 0.314702
161 1 0.791667 0.567888 0.314702
131 1 0.0416667 0.683585 0.324602
179 1 0.541667 0.683585 0.324602
107 1 0.0416667 0.817888 0.314702
155 1 0.541667 0.817888 0.314702
135 1 0.291667 0.933585 0.324602
183 1 0.791667 0.933585 0.324602
40 1 0.0416667 0.0669648 0.42798
43 1 0.291667 0.125327 0.375274
88 1 0.541667 0.0669648 0.42798
91 1 0.791667 0.125327 0.375274
108 1 0.0416667 0.00963847 0.367469
156 1 0.541667 0.00963847 0.367469
15 1 0.0416667 0.201294 0.419421
63 1 0.541667 0.201294 0.419421
18 1 0.291667 0.259638 0.367469
36 1 0.0416667 0.375327 0.375274
44 1 0.291667 0.316965 0.42798
66 1 0.791667 0.259638 0.367469
84 1 0.541667 0.375327 0.375274
92 1 0.791667 0.316965 0.42798
12 1 0.0416667 0.509638 0.367469
19 1 0.291667 0.451294 0.419421
60 1 0.541667 0.509638 0.367469
67 1 0.791667 0.451294 0.419421
136 1 0.0416667 0.566965 0.42798
184 1 0.541667 0.566965 0.42798
139 1 0.291667 0.625327 0.375274
187 1 0.791667 0.625327 0.375274
111 1 0.0416667 0.701294 0.419421
114 1 0.291667 0.759638 0.367469
159 1 0.541667 0.701294 0.419421
162 1 0.791667 0.759638 0.367469
140 1 0.291667 0.816965 0.42798
188 1 0.791667 0.816965 0.42798
115 1 0.291667 0.951294 0.419421
132 1 0.0416667 0.875327 0.375274
163 1 0.791667 0.951294 0.419421
180 1 0.541667 0.875327 0.375274
20 1 0.0416667 0.0847099 0.524351
24 1 0.291667 0.143068 0.471251
47 1 0.291667 0.199578 0.533242
68 1 0.541667 0.0847099 0.524351
72 1 0.791667 0.143068 0.471251
95 1 0.791667 0.199578 0.533242
141 1 0.291667 0.0088284 0.479777
189 1 0.791667 0.0088284 0.479777
16 1 0.0416667 0.393068 0.471251
22 1 0.291667 0.33471 0.524351
41 1 0.0416667 0.258828 0.479777
64 1 0.541667 0.393068 0.471251
70 1 0.791667 0.33471 0.524351
89 1 0.541667 0.258828 0.479777
42 1 0.0416667 0.449578 0.533242
45 1 0.291667 0.508828 0.479777
90 1 0.541667 0.449578 0.533242
93 1 0.791667 0.508828 0.479777
116 1 0.0416667 0.58471 0.524351
164 1 0.541667 0.58471 0.524351
120 1 0.291667 0.643068 0.471251
137 1 0.0416667 0.758828 0.479777
143 1 0.291667 0.699578 0.533242
168 1 0.791667 0.643068 0.471251
185 1 0.541667 0.758828 0.479777
191 1 0.791667 0.699578 0.533242
118 1 0.291667 0.83471 0.524351
166 1 0.791667 0.83471 0.524351
112 1 0.0416667 0.893068 0.471251
138 1 0.0416667 0.949578 0.533242
160 1 0.541667 0.893068 0.471251
186 1 0.541667 0.949578 0.533242
46 1 0.0416667 0.146692 0.58181
94 1 0.541667 0.146692 0.58181
119 1 0.291667 0.0312617 0.573126
167 1 0.791667 0.0312617 0.573126
21 1 0.0416667 0.281262 0.573126
48 1 0.291667 0.396692 0.58181
69 1 0.541667 0.281262 0.573126
96 1 0.791667 0.396692 0.58181
23 1 0.291667 0.531262 0.573126
71 1 0.791667 0.531262 0.573126
117 1 0.0416667 0.781262 0.573126
142 1 0.0416667 0.646692 0.58181
165 1 0.541667 0.781262 0.573126
190 1 0.541667 0.646692 0.58181
144 1 0.291667 0.896692 0.58181
192 1 0.791667 0.896692 0.58181
