ITEM: TIMESTEP
155
ITEM: NUMBER OF ATOMS
192
ITEM: BOX BOUNDS pp pp pp
0.0000000000000000e+00 5.9011998176000002e+00
0.0000000000000000e+00 2.1324426539756200e+01
0.0000000000000000e+00 4.3042699813799999e+01
ITEM: ATOMS id type xs ys zs
1 1 0 0.121395 0
7 1 0.25 0.0685083 0.0483446
26 1 1 0.183377 0.0572515
49 1 0.5 0.121395 0
55 1 0.75 0.0685083 0.0483446
74 1 0.5 0.183377 0.0572515
2 1 0 0.318508 0.0483446
3 1 0.25 0.371395 0
28 1 0.25 0.236825 0.00868461
50 1 0.5 0.318508 0.0483446
51 1 0.75 0.371395 0
76 1 0.75 0.236825 0.00868461
25 1 0 0.486825 0.00868461
29 1 0.25 0.433377 0.0572515
73 1 0.5 0.486825 0.00868461
77 1 0.75 0.433377 0.0572515
103 1 0.25 0.568508 0.0483446
151 1 0.75 0.568508 0.0483446
97 1 0 0.621395 0
122 1 1 0.683377 0.0572515
124 1 0.25 0.736825 0.00868461
145 1 0.5 0.621395 0
170 1 0.5 0.683377 0.0572515
172 1 0.75 0.736825 0.00868461
98 1 1.50508e-16 0.818508 0.0483446
99 1 0.25 0.871395 0
121 1 0 0.986825 0.00868461
125 1 0.25 0.933377 0.0572515
146 1 0.5 0.818508 0.0483446
147 1 0.75 0.871395 0
169 1 0.5 0.986825 0.00868461
173 1 0.75 0.933377 0.0572515
4 1 0 0.00925805 0.101561
30 1 0 0.0667923 0.161487
33 1 0.25 0.125018 0.110117
52 1 0.5 0.00925805 0.101561
78 1 0.5 0.0667923 0.161487
81 1 0.75 0.125018 0.110117
5 1 0 0.201122 0.153242
53 1 0.5 0.201122 0.153242
8 1 0.25 0.259258 0.101561
27 1 0 0.375018 0.110117
34 1 0.25 0.316792 0.161487
56 1 0.75 0.259258 0.101561
75 1 0.5 0.375018 0.110117
82 1 0.75 0.316792 0.161487
9 1 0.25 0.451122 0.153242
57 1 0.75 0.451122 0.153242
100 1 1 0.509258 0.101561
126 1 0 0.566792 0.161487
148 1 0.5 0.509258 0.101561
174 1 0.5 0.566792 0.161487
101 1 0 0.701122 0.153242
104 1 0.25 0.759258 0.101561
129 1 0.25 0.625018 0.110117
149 1 0.5 0.701122 0.153242
152 1 0.75 0.759258 0.101561
177 1 0.75 0.625018 0.110117
105 1 0.25 0.951122 0.153242
123 1 2.18999e-17 0.875018 0.110117
130 1 0.25 0.816792 0.161487
153 1 0.75 0.951122 0.153242
171 1 0.5 0.875018 0.110117
178 1 0.75 0.816792 0.161487
10 1 1 0.0845017 0.259216
13 1 0.25 0.142759 0.205986
37 1 0.25 0.0084478 0.213636
58 1 0.5 0.0845017 0.259216
61 1 0.75 0.142759 0.205986
85 1 0.75 0.0084478 0.213636
38 1 0.25 0.200198 0.263072
86 1 0.75 0.200198 0.263072
6 1 1 0.392759 0.205986
14 1 0.25 0.334502 0.259216
31 1 2.09346e-16 0.258448 0.213636
54 1 0.5 0.392759 0.205986
62 1 0.75 0.334502 0.259216
79 1 0.5 0.258448 0.213636
32 1 0 0.450198 0.263072
80 1 0.5 0.450198 0.263072
106 1 1.50508e-16 0.584502 0.259216
133 1 0.25 0.508448 0.213636
154 1 0.5 0.584502 0.259216
181 1 0.75 0.508448 0.213636
109 1 0.25 0.642759 0.205986
127 1 1.46313e-17 0.758448 0.213636
134 1 0.25 0.700198 0.263072
157 1 0.75 0.642759 0.205986
175 1 0.5 0.758448 0.213636
182 1 0.75 0.700198 0.263072
102 1 0 0.892759 0.205986
110 1 0.25 0.834502 0.259216
128 1 1.50508e-16 0.950198 0.263072
150 1 0.5 0.892759 0.205986
158 1 0.75 0.834502 0.259216
176 1 0.5 0.950198 0.263072
17 1 0.408333 0.184555 0.318739
65 1 0.908333 0.184555 0.318739
135 1 0.408333 0.0502512 0.322594
183 1 0.908333 0.0502512 0.322594
35 1 0.158333 0.300251 0.322594
83 1 0.658333 0.300251 0.322594
11 1 0.158333 0.434555 0.318739
59 1 0.658333 0.434555 0.318739
39 1 0.408333 0.550251 0.322594
87 1 0.908333 0.550251 0.322594
113 1 0.408333 0.684555 0.318739
161 1 0.908333 0.684555 0.318739
131 1 0.158333 0.800251 0.322594
179 1 0.658333 0.800251 0.322594
107 1 0.158333 0.934555 0.318739
155 1 0.658333 0.934555 0.318739
40 1 0.158333 0.183631 0.428568
88 1 0.658333 0.183631 0.428568
108 1 0.158333 0.126305 0.368175
156 1 0.658333 0.126305 0.368175
115 1 0.408333 0.0679607 0.420323
163 1 0.908333 0.0679607 0.420323
43 1 0.408333 0.241994 0.375824
91 1 0.908333 0.241994 0.375824
15 1 0.158333 0.317961 0.420323
63 1 0.658333 0.317961 0.420323
18 1 0.408333 0.376305 0.368175
66 1 0.908333 0.376305 0.368175
44 1 0.408333 0.433631 0.428568
92 1 0.908333 0.433631 0.428568
36 1 0.158333 0.491994 0.375824
84 1 0.658333 0.491994 0.375824
19 1 0.408333 0.567961 0.420323
67 1 0.908333 0.567961 0.420323
12 1 0.158333 0.626305 0.368175
60 1 0.658333 0.626305 0.368175
136 1 0.158333 0.683631 0.428568
184 1 0.658333 0.683631 0.428568
139 1 0.408333 0.741994 0.375824
187 1 0.908333 0.741994 0.375824
111 1 0.158333 0.817961 0.420323
159 1 0.658333 0.817961 0.420323
114 1 0.408333 0.876305 0.368175
162 1 0.908333 0.876305 0.368175
140 1 0.408333 0.933631 0.428568
188 1 0.908333 0.933631 0.428568
132 1 0.158333 0.991994 0.375824
180 1 0.658333 0.991994 0.375824
141 1 0.408333 0.125495 0.48025
189 1 0.908333 0.125495 0.48025
138 1 0.158333 0.0662449 0.533466
186 1 0.658333 0.0662449 0.533466
112 1 0.158333 0.00973467 0.471693
160 1 0.658333 0.00973467 0.471693
20 1 0.158333 0.201377 0.524559
68 1 0.658333 0.201377 0.524559
24 1 0.408333 0.259735 0.471693
72 1 0.908333 0.259735 0.471693
47 1 0.408333 0.316245 0.533466
95 1 0.908333 0.316245 0.533466
41 1 0.158333 0.375495 0.48025
89 1 0.658333 0.375495 0.48025
22 1 0.408333 0.451377 0.524559
70 1 0.908333 0.451377 0.524559
16 1 0.158333 0.509735 0.471693
64 1 0.658333 0.509735 0.471693
42 1 0.158333 0.566245 0.533466
90 1 0.658333 0.566245 0.533466
45 1 0.408333 0.625495 0.48025
93 1 0.908333 0.625495 0.48025
116 1 0.158333 0.701377 0.524559
164 1 0.658333 0.701377 0.524559
120 1 0.408333 0.759735 0.471693
168 1 0.908333 0.759735 0.471693
143 1 0.408333 0.816245 0.533466
191 1 0.908333 0.816245 0.533466
137 1 0.158333 0.875495 0.48025
185 1 0.658333 0.875495 0.48025
118 1 0.408333 0.951377 0.524559
166 1 0.908333 0.951377 0.524559
119 1 0.408333 0.147928 0.573126
167 1 0.908333 0.147928 0.573126
144 1 0.408333 0.0133583 0.58181
192 1 0.908333 0.0133583 0.58181
46 1 0.158333 0.263358 0.58181
94 1 0.658333 0.263358 0.58181
21 1 0.158333 0.397928 0.573126
69 1 0.658333 0.397928 0.573126
48 1 0.408333 0.513358 0.58181
96 1 0.908333 0.513358 0.58181
23 1 0.408333 0.647928 0.573126
71 1 0.908333 0.647928 0.573126
142 1 0.158333 0.763358 0.58181
190 1 0.658333 0.763358 0.58181
117 1 0.158333 0.897928 0.573126
165 1 0.658333 0.897928 0.573126
