ITEM: TIMESTEP
140
ITEM: NUMBER OF ATOMS
192
ITEM: BOX BOUNDS pp pp pp
0.0000000000000000e+00 5.9011998176000002e+00
0.0000000000000000e+00 2.1324426539756200e+01
0.0000000000000000e+00 4.3042699813799999e+01
ITEM: ATOMS id type xs ys zs
1 1 0 0.121395 0
7 1 0.25 0.0685083 0.0484519
26 1 1 0.183377 0.0573467
49 1 0.5 0.121395 0
55 1 0.75 0.0685083 0.0484519
74 1 0.5 0.183377 0.0573467
2 1 0 0.318508 0.0484519
3 1 0.25 0.371395 0
28 1 0.25 0.236825 0.00868461
50 1 0.5 0.318508 0.0484519
51 1 0.75 0.371395 0
76 1 0.75 0.236825 0.00868461
25 1 0 0.486825 0.00868461
29 1 0.25 0.433377 0.0573467
73 1 0.5 0.486825 0.00868461
77 1 0.75 0.433377 0.0573467
103 1 0.25 0.568508 0.0484519
151 1 0.75 0.568508 0.0484519
97 1 0 0.621395 0
122 1 1 0.683377 0.0573467
124 1 0.25 0.736825 0.00868461
145 1 0.5 0.621395 0
170 1 0.5 0.683377 0.0573467
172 1 0.75 0.736825 0.00868461
98 1 1.50508e-16 0.818508 0.0484519
99 1 0.25 0.871395 0
121 1 0 0.986825 0.00868461
125 1 0.25 0.933377 0.0573467
146 1 0.5 0.818508 0.0484519
147 1 0.75 0.871395 0
169 1 0.5 0.986825 0.00868461
173 1 0.75 0.933377 0.0573467
4 1 0 0.00925805 0.101792
30 1 0 0.0667923 0.161797
33 1 0.25 0.125018 0.110323
52 1 0.5 0.00925805 0.101792
78 1 0.5 0.0667923 0.161797
81 1 0.75 0.125018 0.110323
5 1 0 0.201122 0.15363
53 1 0.5 0.201122 0.15363
8 1 0.25 0.259258 0.101792
27 1 0 0.375018 0.110323
34 1 0.25 0.316792 0.161797
56 1 0.75 0.259258 0.101792
75 1 0.5 0.375018 0.110323
82 1 0.75 0.316792 0.161797
9 1 0.25 0.451122 0.15363
57 1 0.75 0.451122 0.15363
100 1 1 0.509258 0.101792
126 1 0 0.566792 0.161797
148 1 0.5 0.509258 0.101792
174 1 0.5 0.566792 0.161797
101 1 0 0.701122 0.15363
104 1 0.25 0.759258 0.101792
129 1 0.25 0.625018 0.110323
149 1 0.5 0.701122 0.15363
152 1 0.75 0.759258 0.101792
177 1 0.75 0.625018 0.110323
105 1 0.25 0.951122 0.15363
123 1 2.18999e-17 0.875018 0.110323
130 1 0.25 0.816792 0.161797
153 1 0.75 0.951122 0.15363
171 1 0.5 0.875018 0.110323
178 1 0.75 0.816792 0.161797
10 1 1 0.0845017 0.260045
13 1 0.25 0.142759 0.206484
37 1 0.25 0.0084478 0.213947
58 1 0.5 0.0845017 0.260045
61 1 0.75 0.142759 0.206484
85 1 0.75 0.0084478 0.213947
38 1 0.25 0.200198 0.263733
86 1 0.75 0.200198 0.263733
6 1 1 0.392759 0.206484
14 1 0.25 0.334502 0.260045
31 1 2.09346e-16 0.258448 0.213947
54 1 0.5 0.392759 0.206484
62 1 0.75 0.334502 0.260045
79 1 0.5 0.258448 0.213947
32 1 0 0.450198 0.263733
80 1 0.5 0.450198 0.263733
106 1 1.50508e-16 0.584502 0.260045
133 1 0.25 0.508448 0.213947
154 1 0.5 0.584502 0.260045
181 1 0.75 0.508448 0.213947
109 1 0.25 0.642759 0.206484
127 1 1.46313e-17 0.758448 0.213947
134 1 0.25 0.700198 0.263733
157 1 0.75 0.642759 0.206484
175 1 0.5 0.758448 0.213947
182 1 0.75 0.700198 0.263733
102 1 0 0.892759 0.206484
110 1 0.25 0.834502 0.260045
128 1 1.50508e-16 0.950198 0.263733
150 1 0.5 0.892759 0.206484
158 1 0.75 0.834502 0.260045
176 1 0.5 0.950198 0.263733
17 1 0.391667 0.167888 0.318078
65 1 0.891667 0.167888 0.318078
135 1 0.391667 0.0335845 0.321766
183 1 0.891667 0.0335845 0.321766
35 1 0.141667 0.283585 0.321766
83 1 0.641667 0.283585 0.321766
11 1 0.141667 0.417888 0.318078
59 1 0.641667 0.417888 0.318078
39 1 0.391667 0.533585 0.321766
87 1 0.891667 0.533585 0.321766
113 1 0.391667 0.667888 0.318078
161 1 0.891667 0.667888 0.318078
131 1 0.141667 0.783585 0.321766
179 1 0.641667 0.783585 0.321766
107 1 0.141667 0.917888 0.318078
155 1 0.641667 0.917888 0.318078
40 1 0.141667 0.166965 0.42818
88 1 0.641667 0.166965 0.42818
108 1 0.141667 0.109638 0.367863
156 1 0.641667 0.109638 0.367863
115 1 0.391667 0.051294 0.420013
163 1 0.891667 0.051294 0.420013
43 1 0.391667 0.225327 0.375327
91 1 0.891667 0.225327 0.375327
15 1 0.141667 0.301294 0.420013
63 1 0.641667 0.301294 0.420013
18 1 0.391667 0.359638 0.367863
66 1 0.891667 0.359638 0.367863
44 1 0.391667 0.416965 0.42818
92 1 0.891667 0.416965 0.42818
36 1 0.141667 0.475327 0.375327
84 1 0.641667 0.475327 0.375327
19 1 0.391667 0.551294 0.420013
67 1 0.891667 0.551294 0.420013
12 1 0.141667 0.609638 0.367863
60 1 0.641667 0.609638 0.367863
136 1 0.141667 0.666965 0.42818
184 1 0.641667 0.666965 0.42818
139 1 0.391667 0.725327 0.375327
187 1 0.891667 0.725327 0.375327
111 1 0.141667 0.801294 0.420013
159 1 0.641667 0.801294 0.420013
114 1 0.391667 0.859638 0.367863
162 1 0.891667 0.859638 0.367863
140 1 0.391667 0.916965 0.42818
188 1 0.891667 0.916965 0.42818
132 1 0.141667 0.975327 0.375327
180 1 0.641667 0.975327 0.375327
20 1 0.141667 0.18471 0.524464
68 1 0.641667 0.18471 0.524464
141 1 0.391667 0.108828 0.480018
189 1 0.891667 0.108828 0.480018
138 1 0.141667 0.0495783 0.533359
186 1 0.641667 0.0495783 0.533359
24 1 0.391667 0.243068 0.471487
72 1 0.891667 0.243068 0.471487
47 1 0.391667 0.299578 0.533359
95 1 0.891667 0.299578 0.533359
41 1 0.141667 0.358828 0.480018
89 1 0.641667 0.358828 0.480018
22 1 0.391667 0.43471 0.524464
70 1 0.891667 0.43471 0.524464
16 1 0.141667 0.493068 0.471487
64 1 0.641667 0.493068 0.471487
42 1 0.141667 0.549578 0.533359
90 1 0.641667 0.549578 0.533359
45 1 0.391667 0.608828 0.480018
93 1 0.891667 0.608828 0.480018
116 1 0.141667 0.68471 0.524464
164 1 0.641667 0.68471 0.524464
120 1 0.391667 0.743068 0.471487
143 1 0.391667 0.799578 0.533359
168 1 0.891667 0.743068 0.471487
191 1 0.891667 0.799578 0.533359
137 1 0.141667 0.858828 0.480018
185 1 0.641667 0.858828 0.480018
118 1 0.391667 0.93471 0.524464
166 1 0.891667 0.93471 0.524464
112 1 0.141667 0.993068 0.471487
160 1 0.641667 0.993068 0.471487
119 1 0.391667 0.131262 0.573126
167 1 0.891667 0.131262 0.573126
46 1 0.141667 0.246692 0.58181
94 1 0.641667 0.246692 0.58181
21 1 0.141667 0.381262 0.573126
69 1 0.641667 0.381262 0.573126
48 1 0.391667 0.496692 0.58181
96 1 0.891667 0.496692 0.58181
23 1 0.391667 0.631262 0.573126
71 1 0.891667 0.631262 0.573126
142 1 0.141667 0.746692 0.58181
190 1 0.641667 0.746692 0.58181
117 1 0.141667 0.881262 0.573126
165 1 0.641667 0.881262 0.573126
144 1 0.391667 0.996692 0.58181
192 1 0.891667 0.996692 0.58181
