ITEM: TIMESTEP
120
ITEM: NUMBER OF ATOMS
192
ITEM: BOX BOUNDS pp pp pp
0.0000000000000000e+00 7.1176886540000002e+00
0.0000000000000000e+00 2.5858194780409800e+01
0.0000000000000000e+00 4.8301037599330101e+01
ITEM: ATOMS id type xs ys zs
1 1 0 0.121395 0
7 1 0.25 0.0650943 0.0442749
49 1 0.5 0.121395 0
55 1 0.75 0.0650943 0.0442749
2 1 3.36001e-17 0.315094 0.0442749
26 1 0 0.179996 0.0544319
28 1 0.25 0.236825 0.00919034
50 1 0.5 0.315094 0.0442749
74 1 0.5 0.179996 0.0544319
76 1 0.75 0.236825 0.00919034
3 1 0.25 0.371395 0
25 1 0 0.486825 0.00919034
29 1 0.25 0.429996 0.0544319
51 1 0.75 0.371395 0
73 1 0.5 0.486825 0.00919034
77 1 0.75 0.429996 0.0544319
97 1 0 0.621395 0
103 1 0.25 0.565094 0.0442749
145 1 0.5 0.621395 0
151 1 0.75 0.565094 0.0442749
98 1 3.56679e-17 0.815094 0.0442749
122 1 4.00817e-17 0.679996 0.0544319
124 1 0.25 0.736825 0.00919034
146 1 0.5 0.815094 0.0442749
170 1 0.5 0.679996 0.0544319
172 1 0.75 0.736825 0.00919034
99 1 0.25 0.871395 0
121 1 0 0.986825 0.00919034
125 1 0.25 0.929996 0.0544319
147 1 0.75 0.871395 0
169 1 0.5 0.986825 0.00919034
173 1 0.75 0.929996 0.0544319
4 1 0 0.00715404 0.0899815
33 1 0.25 0.122177 0.101096
52 1 0.5 0.00715404 0.0899815
81 1 0.75 0.122177 0.101096
30 1 3.41948e-17 0.0646243 0.147321
78 1 0.5 0.0646243 0.147321
5 1 1 0.199689 0.136245
8 1 0.25 0.257154 0.0899815
53 1 0.5 0.199689 0.136245
56 1 0.75 0.257154 0.0899815
34 1 0.25 0.314624 0.147321
82 1 0.75 0.314624 0.147321
9 1 0.25 0.449689 0.136245
27 1 0 0.372177 0.101096
57 1 0.75 0.449689 0.136245
75 1 0.5 0.372177 0.101096
100 1 1.04306e-17 0.507154 0.0899815
129 1 0.25 0.622177 0.101096
148 1 0.5 0.507154 0.0899815
177 1 0.75 0.622177 0.101096
126 1 0 0.564624 0.147321
174 1 0.5 0.564624 0.147321
101 1 0 0.699689 0.136245
104 1 0.25 0.757154 0.0899815
149 1 0.5 0.699689 0.136245
152 1 0.75 0.757154 0.0899815
130 1 0.25 0.814624 0.147321
178 1 0.75 0.814624 0.147321
105 1 0.25 0.949689 0.136245
123 1 1.74769e-17 0.872177 0.101096
153 1 0.75 0.949689 0.136245
171 1 0.5 0.872177 0.101096
13 1 0.25 0.142091 0.182838
37 1 0.25 0.00705467 0.193107
61 1 0.75 0.142091 0.182838
85 1 0.75 0.00705467 0.193107
10 1 0 0.0845159 0.228359
58 1 0.5 0.0845159 0.228359
31 1 4.88341e-17 0.257055 0.193107
79 1 0.5 0.257055 0.193107
38 1 0.25 0.199479 0.237226
86 1 0.75 0.199479 0.237226
6 1 0 0.392091 0.182838
54 1 0.5 0.392091 0.182838
14 1 0.25 0.334516 0.228359
32 1 0 0.449479 0.237226
62 1 0.75 0.334516 0.228359
80 1 0.5 0.449479 0.237226
109 1 0.25 0.642091 0.182838
133 1 0.25 0.507055 0.193107
157 1 0.75 0.642091 0.182838
181 1 0.75 0.507055 0.193107
106 1 0 0.584516 0.228359
154 1 0.5 0.584516 0.228359
127 1 4.16389e-17 0.757055 0.193107
175 1 0.5 0.757055 0.193107
134 1 0.25 0.699479 0.237226
182 1 0.75 0.699479 0.237226
102 1 7.3366e-17 0.892091 0.182838
150 1 0.5 0.892091 0.182838
110 1 0.25 0.834516 0.228359
128 1 1 0.949479 0.237226
158 1 0.75 0.834516 0.228359
176 1 0.5 0.949479 0.237226
17 1 0.333333 0.110274 0.378465
65 1 0.833333 0.110274 0.378465
35 1 0.0833333 0.225237 0.387332
83 1 0.583333 0.225237 0.387332
11 1 0.0833333 0.360274 0.378465
59 1 0.583333 0.360274 0.378465
39 1 0.333333 0.475237 0.387332
87 1 0.833333 0.475237 0.387332
113 1 0.333333 0.610274 0.378465
161 1 0.833333 0.610274 0.378465
131 1 0.0833333 0.725237 0.387332
179 1 0.583333 0.725237 0.387332
107 1 0.0833333 0.860274 0.378465
155 1 0.583333 0.860274 0.378465
135 1 0.333333 0.975237 0.387332
183 1 0.833333 0.975237 0.387332
108 1 0.0833333 0.0526983 0.422583
156 1 0.583333 0.0526983 0.422583
40 1 0.0833333 0.110064 0.479445
88 1 0.583333 0.110064 0.479445
43 1 0.333333 0.167662 0.432853
91 1 0.833333 0.167662 0.432853
18 1 0.333333 0.302698 0.422583
66 1 0.833333 0.302698 0.422583
15 1 0.0833333 0.245129 0.46837
63 1 0.583333 0.245129 0.46837
44 1 0.333333 0.360064 0.479445
92 1 0.833333 0.360064 0.479445
36 1 0.0833333 0.417662 0.432853
84 1 0.583333 0.417662 0.432853
19 1 0.333333 0.495129 0.46837
67 1 0.833333 0.495129 0.46837
12 1 0.0833333 0.552698 0.422583
60 1 0.583333 0.552698 0.422583
136 1 0.0833333 0.610064 0.479445
184 1 0.583333 0.610064 0.479445
139 1 0.333333 0.667662 0.432853
187 1 0.833333 0.667662 0.432853
114 1 0.333333 0.802698 0.422583
162 1 0.833333 0.802698 0.422583
111 1 0.0833333 0.745129 0.46837
159 1 0.583333 0.745129 0.46837
140 1 0.333333 0.860064 0.479445
188 1 0.833333 0.860064 0.479445
132 1 0.0833333 0.917662 0.432853
180 1 0.583333 0.917662 0.432853
115 1 0.333333 0.995129 0.46837
163 1 0.833333 0.995129 0.46837
20 1 0.0833333 0.129757 0.561259
68 1 0.583333 0.129757 0.561259
141 1 0.333333 0.0525991 0.525709
189 1 0.833333 0.0525991 0.525709
24 1 0.333333 0.187576 0.514594
72 1 0.833333 0.187576 0.514594
47 1 0.333333 0.244659 0.571416
95 1 0.833333 0.244659 0.571416
41 1 0.0833333 0.302599 0.525709
89 1 0.583333 0.302599 0.525709
16 1 0.0833333 0.437576 0.514594
64 1 0.583333 0.437576 0.514594
22 1 0.333333 0.379757 0.561259
70 1 0.833333 0.379757 0.561259
42 1 0.0833333 0.494659 0.571416
90 1 0.583333 0.494659 0.571416
45 1 0.333333 0.552599 0.525709
93 1 0.833333 0.552599 0.525709
116 1 0.0833333 0.629757 0.561259
164 1 0.583333 0.629757 0.561259
120 1 0.333333 0.687576 0.514594
168 1 0.833333 0.687576 0.514594
143 1 0.333333 0.744659 0.571416
191 1 0.833333 0.744659 0.571416
137 1 0.0833333 0.802599 0.525709
185 1 0.583333 0.802599 0.525709
112 1 0.0833333 0.937576 0.514594
160 1 0.583333 0.937576 0.514594
118 1 0.333333 0.879757 0.561259
166 1 0.833333 0.879757 0.561259
138 1 0.0833333 0.994659 0.571416
186 1 0.583333 0.994659 0.571416
119 1 0.333333 0.0729283 0.6065
167 1 0.833333 0.0729283 0.6065
46 1 0.0833333 0.188358 0.615691
94 1 0.583333 0.188358 0.615691
21 1 0.0833333 0.322928 0.6065
69 1 0.583333 0.322928 0.6065
48 1 0.333333 0.438358 0.615691
96 1 0.833333 0.438358 0.615691
23 1 0.333333 0.572928 0.6065
71 1 0.833333 0.572928 0.6065
142 1 0.0833333 0.688358 0.615691
190 1 0.583333 0.688358 0.615691
117 1 0.0833333 0.822928 0.6065
165 1 0.583333 0.822928 0.6065
144 1 0.333333 0.938358 0.615691
192 1 0.833333 0.938358 0.615691
