ITEM: TIMESTEP
37
ITEM: NUMBER OF ATOMS
192
ITEM: BOX BOUNDS pp pp pp
0.0000000000000000e+00 5.9011998176000002e+00
0.0000000000000000e+00 2.1324426539756200e+01
0.0000000000000000e+00 4.3042699813799999e+01
ITEM: ATOMS id type xs ys zs
1 1 0 0.121395 0
7 1 0.25 0.0685083 0.048803
26 1 1 0.183377 0.0576801
49 1 0.5 0.121395 0
55 1 0.75 0.0685083 0.048803
74 1 0.5 0.183377 0.0576801
2 1 0 0.318508 0.048803
3 1 0.25 0.371395 0
28 1 0.25 0.236825 0.00868461
50 1 0.5 0.318508 0.048803
51 1 0.75 0.371395 0
76 1 0.75 0.236825 0.00868461
25 1 0 0.486825 0.00868461
29 1 0.25 0.433377 0.0576801
73 1 0.5 0.486825 0.00868461
77 1 0.75 0.433377 0.0576801
103 1 0.25 0.568508 0.048803
151 1 0.75 0.568508 0.048803
97 1 0 0.621395 0
122 1 1 0.683377 0.0576801
124 1 0.25 0.736825 0.00868461
145 1 0.5 0.621395 0
170 1 0.5 0.683377 0.0576801
172 1 0.75 0.736825 0.00868461
98 1 1.50508e-16 0.818508 0.048803
99 1 0.25 0.871395 0
121 1 0 0.986825 0.00868461
125 1 0.25 0.933377 0.0576801
146 1 0.5 0.818508 0.048803
147 1 0.75 0.871395 0
169 1 0.5 0.986825 0.00868461
173 1 0.75 0.933377 0.0576801
4 1 0 0.00925805 0.102562
30 1 0 0.0667923 0.16309
33 1 0.25 0.125018 0.111016
52 1 0.5 0.00925805 0.102562
78 1 0.5 0.0667923 0.16309
81 1 0.75 0.125018 0.111016
5 1 0 0.201122 0.154609
53 1 0.5 0.201122 0.154609
8 1 0.25 0.259258 0.102562
27 1 0 0.375018 0.111016
34 1 0.25 0.316792 0.16309
56 1 0.75 0.259258 0.102562
75 1 0.5 0.375018 0.111016
82 1 0.75 0.316792 0.16309
9 1 0.25 0.451122 0.154609
57 1 0.75 0.451122 0.154609
100 1 1 0.509258 0.102562
126 1 0 0.566792 0.16309
148 1 0.5 0.509258 0.102562
174 1 0.5 0.566792 0.16309
101 1 0 0.701122 0.154609
104 1 0.25 0.759258 0.102562
129 1 0.25 0.625018 0.111016
149 1 0.5 0.701122 0.154609
152 1 0.75 0.759258 0.102562
177 1 0.75 0.625018 0.111016
105 1 0.25 0.951122 0.154609
123 1 2.18999e-17 0.875018 0.111016
130 1 0.25 0.816792 0.16309
153 1 0.75 0.951122 0.154609
171 1 0.5 0.875018 0.111016
178 1 0.75 0.816792 0.16309
10 1 1 0.0845017 0.258898
13 1 0.25 0.142759 0.207327
37 1 0.25 0.0084478 0.215355
58 1 0.5 0.0845017 0.258898
61 1 0.75 0.142759 0.207327
85 1 0.75 0.0084478 0.215355
38 1 0.25 0.200198 0.26794
86 1 0.75 0.200198 0.26794
6 1 1 0.392759 0.207327
14 1 0.25 0.334502 0.258898
31 1 2.09346e-16 0.258448 0.215355
54 1 0.5 0.392759 0.207327
62 1 0.75 0.334502 0.258898
79 1 0.5 0.258448 0.215355
32 1 0 0.450198 0.26794
80 1 0.5 0.450198 0.26794
106 1 1.50508e-16 0.584502 0.258898
133 1 0.25 0.508448 0.215355
154 1 0.5 0.584502 0.258898
181 1 0.75 0.508448 0.215355
109 1 0.25 0.642759 0.207327
127 1 1.46313e-17 0.758448 0.215355
134 1 0.25 0.700198 0.26794
157 1 0.75 0.642759 0.207327
175 1 0.5 0.758448 0.215355
182 1 0.75 0.700198 0.26794
102 1 0 0.892759 0.207327
110 1 0.25 0.834502 0.258898
128 1 1.50508e-16 0.950198 0.26794
150 1 0.5 0.892759 0.207327
158 1 0.75 0.834502 0.258898
176 1 0.5 0.950198 0.26794
17 1 0.275 0.0512215 0.31387
35 1 0.025 0.166918 0.322913
65 1 0.775 0.0512215 0.31387
83 1 0.525 0.166918 0.322913
11 1 0.025 0.301221 0.31387
59 1 0.525 0.301221 0.31387
39 1 0.275 0.416918 0.322913
87 1 0.775 0.416918 0.322913
113 1 0.275 0.551221 0.31387
161 1 0.775 0.551221 0.31387
131 1 0.025 0.666918 0.322913
179 1 0.525 0.666918 0.322913
107 1 0.025 0.801221 0.31387
155 1 0.525 0.801221 0.31387
135 1 0.275 0.916918 0.322913
183 1 0.775 0.916918 0.322913
15 1 0.025 0.184627 0.418721
40 1 0.025 0.0502981 0.427202
43 1 0.275 0.10866 0.374484
63 1 0.525 0.184627 0.418721
88 1 0.525 0.0502981 0.427202
91 1 0.775 0.10866 0.374484
18 1 0.275 0.242972 0.366455
36 1 0.025 0.35866 0.374484
44 1 0.275 0.300298 0.427202
66 1 0.775 0.242972 0.366455
84 1 0.525 0.35866 0.374484
92 1 0.775 0.300298 0.427202
12 1 0.025 0.492972 0.366455
19 1 0.275 0.434627 0.418721
60 1 0.525 0.492972 0.366455
67 1 0.775 0.434627 0.418721
136 1 0.025 0.550298 0.427202
184 1 0.525 0.550298 0.427202
139 1 0.275 0.60866 0.374484
187 1 0.775 0.60866 0.374484
111 1 0.025 0.684627 0.418721
114 1 0.275 0.742972 0.366455
159 1 0.525 0.684627 0.418721
162 1 0.775 0.742972 0.366455
140 1 0.275 0.800298 0.427202
188 1 0.775 0.800298 0.427202
108 1 0.025 0.992972 0.366455
115 1 0.275 0.934627 0.418721
132 1 0.025 0.85866 0.374484
156 1 0.525 0.992972 0.366455
163 1 0.775 0.934627 0.418721
180 1 0.525 0.85866 0.374484
20 1 0.025 0.0680432 0.52413
24 1 0.275 0.126401 0.470794
47 1 0.275 0.182912 0.533007
68 1 0.525 0.0680432 0.52413
72 1 0.775 0.126401 0.470794
95 1 0.775 0.182912 0.533007
16 1 0.025 0.376401 0.470794
22 1 0.275 0.318043 0.52413
41 1 0.025 0.242162 0.479249
64 1 0.525 0.376401 0.470794
70 1 0.775 0.318043 0.52413
89 1 0.525 0.242162 0.479249
42 1 0.025 0.432912 0.533007
45 1 0.275 0.492162 0.479249
90 1 0.525 0.432912 0.533007
93 1 0.775 0.492162 0.479249
116 1 0.025 0.568043 0.52413
164 1 0.525 0.568043 0.52413
120 1 0.275 0.626401 0.470794
137 1 0.025 0.742162 0.479249
143 1 0.275 0.682912 0.533007
168 1 0.775 0.626401 0.470794
185 1 0.525 0.742162 0.479249
191 1 0.775 0.682912 0.533007
118 1 0.275 0.818043 0.52413
166 1 0.775 0.818043 0.52413
112 1 0.025 0.876401 0.470794
138 1 0.025 0.932912 0.533007
141 1 0.275 0.992162 0.479249
160 1 0.525 0.876401 0.470794
186 1 0.525 0.932912 0.533007
189 1 0.775 0.992162 0.479249
46 1 0.025 0.130025 0.58181
94 1 0.525 0.130025 0.58181
119 1 0.275 0.014595 0.573126
167 1 0.775 0.014595 0.573126
21 1 0.025 0.264595 0.573126
48 1 0.275 0.380025 0.58181
69 1 0.525 0.264595 0.573126
96 1 0.775 0.380025 0.58181
23 1 0.275 0.514595 0.573126
71 1 0.775 0.514595 0.573126
117 1 0.025 0.764595 0.573126
142 1 0.025 0.630025 0.58181
165 1 0.525 0.764595 0.573126
190 1 0.525 0.630025 0.58181
144 1 0.275 0.880025 0.58181
192 1 0.775 0.880025 0.58181
