ITEM: TIMESTEP
176
ITEM: NUMBER OF ATOMS
192
ITEM: BOX BOUNDS pp pp pp
0.0000000000000000e+00 7.1176886540000002e+00
0.0000000000000000e+00 2.5858194780409800e+01
0.0000000000000000e+00 4.8301037599330101e+01
ITEM: ATOMS id type xs ys zs
1 1 0 0.121395 0
7 1 0.25 0.0650943 0.0443446
49 1 0.5 0.121395 0
55 1 0.75 0.0650943 0.0443446
2 1 3.36001e-17 0.315094 0.0443446
26 1 0 0.179996 0.0544728
28 1 0.25 0.236825 0.00919034
50 1 0.5 0.315094 0.0443446
74 1 0.5 0.179996 0.0544728
76 1 0.75 0.236825 0.00919034
3 1 0.25 0.371395 0
25 1 0 0.486825 0.00919034
29 1 0.25 0.429996 0.0544728
51 1 0.75 0.371395 0
73 1 0.5 0.486825 0.00919034
77 1 0.75 0.429996 0.0544728
97 1 0 0.621395 0
103 1 0.25 0.565094 0.0443446
145 1 0.5 0.621395 0
151 1 0.75 0.565094 0.0443446
98 1 3.56679e-17 0.815094 0.0443446
122 1 4.00817e-17 0.679996 0.0544728
124 1 0.25 0.736825 0.00919034
146 1 0.5 0.815094 0.0443446
170 1 0.5 0.679996 0.0544728
172 1 0.75 0.736825 0.00919034
99 1 0.25 0.871395 0
121 1 0 0.986825 0.00919034
125 1 0.25 0.929996 0.0544728
147 1 0.75 0.871395 0
169 1 0.5 0.986825 0.00919034
173 1 0.75 0.929996 0.0544728
4 1 0 0.00715404 0.0901606
33 1 0.25 0.122177 0.101239
52 1 0.5 0.00715404 0.0901606
81 1 0.75 0.122177 0.101239
30 1 3.41948e-17 0.0646243 0.14757
78 1 0.5 0.0646243 0.14757
5 1 1 0.199689 0.136526
8 1 0.25 0.257154 0.0901606
53 1 0.5 0.199689 0.136526
56 1 0.75 0.257154 0.0901606
34 1 0.25 0.314624 0.14757
82 1 0.75 0.314624 0.14757
9 1 0.25 0.449689 0.136526
27 1 0 0.372177 0.101239
57 1 0.75 0.449689 0.136526
75 1 0.5 0.372177 0.101239
100 1 1.04306e-17 0.507154 0.0901606
129 1 0.25 0.622177 0.101239
148 1 0.5 0.507154 0.0901606
177 1 0.75 0.622177 0.101239
126 1 0 0.564624 0.14757
174 1 0.5 0.564624 0.14757
101 1 0 0.699689 0.136526
104 1 0.25 0.757154 0.0901606
149 1 0.5 0.699689 0.136526
152 1 0.75 0.757154 0.0901606
130 1 0.25 0.814624 0.14757
178 1 0.75 0.814624 0.14757
105 1 0.25 0.949689 0.136526
123 1 1.74769e-17 0.872177 0.101239
153 1 0.75 0.949689 0.136526
171 1 0.5 0.872177 0.101239
13 1 0.25 0.142091 0.183223
37 1 0.25 0.00705467 0.193462
61 1 0.75 0.142091 0.183223
85 1 0.75 0.00705467 0.193462
10 1 0 0.0845159 0.22877
58 1 0.5 0.0845159 0.22877
31 1 4.88341e-17 0.257055 0.193462
79 1 0.5 0.257055 0.193462
38 1 0.25 0.199479 0.237658
86 1 0.75 0.199479 0.237658
6 1 0 0.392091 0.183223
54 1 0.5 0.392091 0.183223
14 1 0.25 0.334516 0.22877
32 1 0 0.449479 0.237658
62 1 0.75 0.334516 0.22877
80 1 0.5 0.449479 0.237658
109 1 0.25 0.642091 0.183223
133 1 0.25 0.507055 0.193462
157 1 0.75 0.642091 0.183223
181 1 0.75 0.507055 0.193462
106 1 0 0.584516 0.22877
154 1 0.5 0.584516 0.22877
127 1 4.16389e-17 0.757055 0.193462
175 1 0.5 0.757055 0.193462
134 1 0.25 0.699479 0.237658
182 1 0.75 0.699479 0.237658
102 1 7.3366e-17 0.892091 0.183223
150 1 0.5 0.892091 0.183223
110 1 0.25 0.834516 0.22877
128 1 1 0.949479 0.237658
158 1 0.75 0.834516 0.22877
176 1 0.5 0.949479 0.237658
17 1 0.383333 0.160274 0.378032
65 1 0.883333 0.160274 0.378032
135 1 0.383333 0.025237 0.386921
183 1 0.883333 0.025237 0.386921
35 1 0.133333 0.275237 0.386921
83 1 0.633333 0.275237 0.386921
11 1 0.133333 0.410274 0.378032
59 1 0.633333 0.410274 0.378032
39 1 0.383333 0.525237 0.386921
87 1 0.883333 0.525237 0.386921
113 1 0.383333 0.660274 0.378032
161 1 0.883333 0.660274 0.378032
131 1 0.133333 0.775237 0.386921
179 1 0.633333 0.775237 0.386921
107 1 0.133333 0.910274 0.378032
155 1 0.633333 0.910274 0.378032
108 1 0.133333 0.102698 0.422229
156 1 0.633333 0.102698 0.422229
40 1 0.133333 0.160064 0.479165
88 1 0.633333 0.160064 0.479165
115 1 0.383333 0.0451286 0.46812
163 1 0.883333 0.0451286 0.46812
43 1 0.383333 0.217662 0.432468
91 1 0.883333 0.217662 0.432468
15 1 0.133333 0.295129 0.46812
63 1 0.633333 0.295129 0.46812
18 1 0.383333 0.352698 0.422229
66 1 0.883333 0.352698 0.422229
44 1 0.383333 0.410064 0.479165
92 1 0.883333 0.410064 0.479165
36 1 0.133333 0.467662 0.432468
84 1 0.633333 0.467662 0.432468
19 1 0.383333 0.545129 0.46812
67 1 0.883333 0.545129 0.46812
12 1 0.133333 0.602698 0.422229
60 1 0.633333 0.602698 0.422229
136 1 0.133333 0.660064 0.479165
184 1 0.633333 0.660064 0.479165
139 1 0.383333 0.717662 0.432468
187 1 0.883333 0.717662 0.432468
111 1 0.133333 0.795129 0.46812
159 1 0.633333 0.795129 0.46812
114 1 0.383333 0.852698 0.422229
162 1 0.883333 0.852698 0.422229
140 1 0.383333 0.910064 0.479165
188 1 0.883333 0.910064 0.479165
132 1 0.133333 0.967662 0.432468
180 1 0.633333 0.967662 0.432468
141 1 0.383333 0.102599 0.52553
189 1 0.883333 0.102599 0.52553
138 1 0.133333 0.0446589 0.571346
186 1 0.633333 0.0446589 0.571346
20 1 0.133333 0.179757 0.561218
68 1 0.633333 0.179757 0.561218
24 1 0.383333 0.237576 0.514452
72 1 0.883333 0.237576 0.514452
47 1 0.383333 0.294659 0.571346
95 1 0.883333 0.294659 0.571346
41 1 0.133333 0.352599 0.52553
89 1 0.633333 0.352599 0.52553
16 1 0.133333 0.487576 0.514452
64 1 0.633333 0.487576 0.514452
22 1 0.383333 0.429757 0.561218
70 1 0.883333 0.429757 0.561218
42 1 0.133333 0.544659 0.571346
90 1 0.633333 0.544659 0.571346
45 1 0.383333 0.602599 0.52553
93 1 0.883333 0.602599 0.52553
116 1 0.133333 0.679757 0.561218
164 1 0.633333 0.679757 0.561218
120 1 0.383333 0.737576 0.514452
168 1 0.883333 0.737576 0.514452
143 1 0.383333 0.794659 0.571346
191 1 0.883333 0.794659 0.571346
137 1 0.133333 0.852599 0.52553
185 1 0.633333 0.852599 0.52553
112 1 0.133333 0.987576 0.514452
160 1 0.633333 0.987576 0.514452
118 1 0.383333 0.929757 0.561218
166 1 0.883333 0.929757 0.561218
119 1 0.383333 0.122928 0.6065
167 1 0.883333 0.122928 0.6065
46 1 0.133333 0.238358 0.615691
94 1 0.633333 0.238358 0.615691
21 1 0.133333 0.372928 0.6065
69 1 0.633333 0.372928 0.6065
48 1 0.383333 0.488358 0.615691
96 1 0.883333 0.488358 0.615691
23 1 0.383333 0.622928 0.6065
71 1 0.883333 0.622928 0.6065
142 1 0.133333 0.738358 0.615691
190 1 0.633333 0.738358 0.615691
117 1 0.133333 0.872928 0.6065
165 1 0.633333 0.872928 0.6065
144 1 0.383333 0.988358 0.615691
192 1 0.883333 0.988358 0.615691
