ITEM: TIMESTEP
215
ITEM: NUMBER OF ATOMS
192
ITEM: BOX BOUNDS pp pp pp
0.0000000000000000e+00 5.9011998176000002e+00
0.0000000000000000e+00 2.1324426539756200e+01
0.0000000000000000e+00 4.3042699813799999e+01
ITEM: ATOMS id type xs ys zs
1 1 0 0.121395 0
7 1 0.25 0.0685083 0.0486555
26 1 1 0.183377 0.0575367
49 1 0.5 0.121395 0
55 1 0.75 0.0685083 0.0486555
74 1 0.5 0.183377 0.0575367
2 1 0 0.318508 0.0486555
3 1 0.25 0.371395 0
28 1 0.25 0.236825 0.00868461
50 1 0.5 0.318508 0.0486555
51 1 0.75 0.371395 0
76 1 0.75 0.236825 0.00868461
25 1 0 0.486825 0.00868461
29 1 0.25 0.433377 0.0575367
73 1 0.5 0.486825 0.00868461
77 1 0.75 0.433377 0.0575367
103 1 0.25 0.568508 0.0486555
151 1 0.75 0.568508 0.0486555
97 1 0 0.621395 0
122 1 1 0.683377 0.0575367
124 1 0.25 0.736825 0.00868461
145 1 0.5 0.621395 0
170 1 0.5 0.683377 0.0575367
172 1 0.75 0.736825 0.00868461
98 1 1.50508e-16 0.818508 0.0486555
99 1 0.25 0.871395 0
121 1 0 0.986825 0.00868461
125 1 0.25 0.933377 0.0575367
146 1 0.5 0.818508 0.0486555
147 1 0.75 0.871395 0
169 1 0.5 0.986825 0.00868461
173 1 0.75 0.933377 0.0575367
4 1 0 0.00925805 0.102222
30 1 0 0.0667923 0.162591
33 1 0.25 0.125018 0.11071
52 1 0.5 0.00925805 0.102222
78 1 0.5 0.0667923 0.162591
81 1 0.75 0.125018 0.11071
5 1 0 0.201122 0.154132
53 1 0.5 0.201122 0.154132
8 1 0.25 0.259258 0.102222
27 1 0 0.375018 0.11071
34 1 0.25 0.316792 0.162591
56 1 0.75 0.259258 0.102222
75 1 0.5 0.375018 0.11071
82 1 0.75 0.316792 0.162591
9 1 0.25 0.451122 0.154132
57 1 0.75 0.451122 0.154132
100 1 1 0.509258 0.102222
126 1 0 0.566792 0.162591
148 1 0.5 0.509258 0.102222
174 1 0.5 0.566792 0.162591
101 1 0 0.701122 0.154132
104 1 0.25 0.759258 0.102222
129 1 0.25 0.625018 0.11071
149 1 0.5 0.701122 0.154132
152 1 0.75 0.759258 0.102222
177 1 0.75 0.625018 0.11071
105 1 0.25 0.951122 0.154132
123 1 2.18999e-17 0.875018 0.11071
130 1 0.25 0.816792 0.162591
153 1 0.75 0.951122 0.154132
171 1 0.5 0.875018 0.11071
178 1 0.75 0.816792 0.162591
10 1 1 0.0845017 0.259187
13 1 0.25 0.142759 0.207187
37 1 0.25 0.0084478 0.215024
58 1 0.5 0.0845017 0.259187
61 1 0.75 0.142759 0.207187
85 1 0.75 0.0084478 0.215024
38 1 0.25 0.200198 0.265539
86 1 0.75 0.200198 0.265539
6 1 1 0.392759 0.207187
14 1 0.25 0.334502 0.259187
31 1 2.09346e-16 0.258448 0.215024
54 1 0.5 0.392759 0.207187
62 1 0.75 0.334502 0.259187
79 1 0.5 0.258448 0.215024
32 1 0 0.450198 0.265539
80 1 0.5 0.450198 0.265539
106 1 1.50508e-16 0.584502 0.259187
133 1 0.25 0.508448 0.215024
154 1 0.5 0.584502 0.259187
181 1 0.75 0.508448 0.215024
109 1 0.25 0.642759 0.207187
127 1 1.46313e-17 0.758448 0.215024
134 1 0.25 0.700198 0.265539
157 1 0.75 0.642759 0.207187
175 1 0.5 0.758448 0.215024
182 1 0.75 0.700198 0.265539
102 1 0 0.892759 0.207187
110 1 0.25 0.834502 0.259187
128 1 1.50508e-16 0.950198 0.265539
150 1 0.5 0.892759 0.207187
158 1 0.75 0.834502 0.259187
176 1 0.5 0.950198 0.265539
135 1 0.466667 0.108585 0.322623
183 1 0.966667 0.108585 0.322623
17 1 0.466667 0.242888 0.316271
65 1 0.966667 0.242888 0.316271
35 1 0.216667 0.358585 0.322623
83 1 0.716667 0.358585 0.322623
11 1 0.216667 0.492888 0.316271
59 1 0.716667 0.492888 0.316271
39 1 0.466667 0.608585 0.322623
87 1 0.966667 0.608585 0.322623
113 1 0.466667 0.742888 0.316271
161 1 0.966667 0.742888 0.316271
131 1 0.216667 0.858585 0.322623
179 1 0.716667 0.858585 0.322623
107 1 0.216667 0.992888 0.316271
155 1 0.716667 0.992888 0.316271
108 1 0.216667 0.184638 0.366786
156 1 0.716667 0.184638 0.366786
115 1 0.466667 0.126294 0.419219
163 1 0.966667 0.126294 0.419219
132 1 0.216667 0.0503272 0.374623
180 1 0.716667 0.0503272 0.374623
40 1 0.216667 0.241965 0.427679
88 1 0.716667 0.241965 0.427679
43 1 0.466667 0.300327 0.374623
91 1 0.966667 0.300327 0.374623
15 1 0.216667 0.376294 0.419219
63 1 0.716667 0.376294 0.419219
18 1 0.466667 0.434638 0.366786
66 1 0.966667 0.434638 0.366786
44 1 0.466667 0.491965 0.427679
92 1 0.966667 0.491965 0.427679
36 1 0.216667 0.550327 0.374623
84 1 0.716667 0.550327 0.374623
19 1 0.466667 0.626294 0.419219
67 1 0.966667 0.626294 0.419219
12 1 0.216667 0.684638 0.366786
60 1 0.716667 0.684638 0.366786
136 1 0.216667 0.741965 0.427679
184 1 0.716667 0.741965 0.427679
139 1 0.466667 0.800327 0.374623
187 1 0.966667 0.800327 0.374623
111 1 0.216667 0.876294 0.419219
159 1 0.716667 0.876294 0.419219
114 1 0.466667 0.934638 0.366786
162 1 0.966667 0.934638 0.366786
140 1 0.466667 0.991965 0.427679
188 1 0.966667 0.991965 0.427679
141 1 0.466667 0.183828 0.479588
189 1 0.966667 0.183828 0.479588
138 1 0.216667 0.124578 0.533155
186 1 0.716667 0.124578 0.533155
112 1 0.216667 0.068068 0.4711
160 1 0.716667 0.068068 0.4711
118 1 0.466667 0.00970991 0.524274
166 1 0.966667 0.00970991 0.524274
20 1 0.216667 0.25971 0.524274
68 1 0.716667 0.25971 0.524274
24 1 0.466667 0.318068 0.4711
72 1 0.966667 0.318068 0.4711
47 1 0.466667 0.374578 0.533155
95 1 0.966667 0.374578 0.533155
41 1 0.216667 0.433828 0.479588
89 1 0.716667 0.433828 0.479588
22 1 0.466667 0.50971 0.524274
70 1 0.966667 0.50971 0.524274
16 1 0.216667 0.568068 0.4711
64 1 0.716667 0.568068 0.4711
42 1 0.216667 0.624578 0.533155
90 1 0.716667 0.624578 0.533155
45 1 0.466667 0.683828 0.479588
93 1 0.966667 0.683828 0.479588
116 1 0.216667 0.75971 0.524274
164 1 0.716667 0.75971 0.524274
120 1 0.466667 0.818068 0.4711
168 1 0.966667 0.818068 0.4711
143 1 0.466667 0.874578 0.533155
191 1 0.966667 0.874578 0.533155
137 1 0.216667 0.933828 0.479588
185 1 0.716667 0.933828 0.479588
144 1 0.466667 0.0716917 0.58181
192 1 0.966667 0.0716917 0.58181
119 1 0.466667 0.206262 0.573126
167 1 0.966667 0.206262 0.573126
46 1 0.216667 0.321692 0.58181
94 1 0.716667 0.321692 0.58181
21 1 0.216667 0.456262 0.573126
69 1 0.716667 0.456262 0.573126
48 1 0.466667 0.571692 0.58181
96 1 0.966667 0.571692 0.58181
23 1 0.466667 0.706262 0.573126
71 1 0.966667 0.706262 0.573126
142 1 0.216667 0.821692 0.58181
190 1 0.716667 0.821692 0.58181
117 1 0.216667 0.956262 0.573126
165 1 0.716667 0.956262 0.573126
