ITEM: TIMESTEP
206
ITEM: NUMBER OF ATOMS
192
ITEM: BOX BOUNDS pp pp pp
0.0000000000000000e+00 7.1176886540000002e+00
0.0000000000000000e+00 2.5858194780409800e+01
0.0000000000000000e+00 4.8301037599330101e+01
ITEM: ATOMS id type xs ys zs
1 1 0 0.121395 0
7 1 0.25 0.0650943 0.0443719
49 1 0.5 0.121395 0
55 1 0.75 0.0650943 0.0443719
2 1 3.36001e-17 0.315094 0.0443719
26 1 0 0.179996 0.0544894
28 1 0.25 0.236825 0.00919034
50 1 0.5 0.315094 0.0443719
74 1 0.5 0.179996 0.0544894
76 1 0.75 0.236825 0.00919034
3 1 0.25 0.371395 0
25 1 0 0.486825 0.00919034
29 1 0.25 0.429996 0.0544894
51 1 0.75 0.371395 0
73 1 0.5 0.486825 0.00919034
77 1 0.75 0.429996 0.0544894
97 1 0 0.621395 0
103 1 0.25 0.565094 0.0443719
145 1 0.5 0.621395 0
151 1 0.75 0.565094 0.0443719
98 1 3.56679e-17 0.815094 0.0443719
122 1 4.00817e-17 0.679996 0.0544894
124 1 0.25 0.736825 0.00919034
146 1 0.5 0.815094 0.0443719
170 1 0.5 0.679996 0.0544894
172 1 0.75 0.736825 0.00919034
99 1 0.25 0.871395 0
121 1 0 0.986825 0.00919034
125 1 0.25 0.929996 0.0544894
147 1 0.75 0.871395 0
169 1 0.5 0.986825 0.00919034
173 1 0.75 0.929996 0.0544894
4 1 0 0.00715404 0.0902297
33 1 0.25 0.122177 0.101295
52 1 0.5 0.00715404 0.0902297
81 1 0.75 0.122177 0.101295
30 1 3.41948e-17 0.0646243 0.147665
78 1 0.5 0.0646243 0.147665
5 1 1 0.199689 0.136632
8 1 0.25 0.257154 0.0902297
53 1 0.5 0.199689 0.136632
56 1 0.75 0.257154 0.0902297
34 1 0.25 0.314624 0.147665
82 1 0.75 0.314624 0.147665
9 1 0.25 0.449689 0.136632
27 1 0 0.372177 0.101295
57 1 0.75 0.449689 0.136632
75 1 0.5 0.372177 0.101295
100 1 1.04306e-17 0.507154 0.0902297
129 1 0.25 0.622177 0.101295
148 1 0.5 0.507154 0.0902297
177 1 0.75 0.622177 0.101295
126 1 0 0.564624 0.147665
174 1 0.5 0.564624 0.147665
101 1 0 0.699689 0.136632
104 1 0.25 0.757154 0.0902297
149 1 0.5 0.699689 0.136632
152 1 0.75 0.757154 0.0902297
130 1 0.25 0.814624 0.147665
178 1 0.75 0.814624 0.147665
105 1 0.25 0.949689 0.136632
123 1 1.74769e-17 0.872177 0.101295
153 1 0.75 0.949689 0.136632
171 1 0.5 0.872177 0.101295
13 1 0.25 0.142091 0.183369
37 1 0.25 0.00705467 0.193598
61 1 0.75 0.142091 0.183369
85 1 0.75 0.00705467 0.193598
10 1 0 0.0845159 0.228926
58 1 0.5 0.0845159 0.228926
31 1 4.88341e-17 0.257055 0.193598
79 1 0.5 0.257055 0.193598
38 1 0.25 0.199479 0.237825
86 1 0.75 0.199479 0.237825
6 1 0 0.392091 0.183369
54 1 0.5 0.392091 0.183369
14 1 0.25 0.334516 0.228926
32 1 0 0.449479 0.237825
62 1 0.75 0.334516 0.228926
80 1 0.5 0.449479 0.237825
109 1 0.25 0.642091 0.183369
133 1 0.25 0.507055 0.193598
157 1 0.75 0.642091 0.183369
181 1 0.75 0.507055 0.193598
106 1 0 0.584516 0.228926
154 1 0.5 0.584516 0.228926
127 1 4.16389e-17 0.757055 0.193598
175 1 0.5 0.757055 0.193598
134 1 0.25 0.699479 0.237825
182 1 0.75 0.699479 0.237825
102 1 7.3366e-17 0.892091 0.183369
150 1 0.5 0.892091 0.183369
110 1 0.25 0.834516 0.228926
128 1 1 0.949479 0.237825
158 1 0.75 0.834516 0.228926
176 1 0.5 0.949479 0.237825
135 1 0.425 0.0669037 0.386765
183 1 0.925 0.0669037 0.386765
17 1 0.425 0.201941 0.377866
65 1 0.925 0.201941 0.377866
35 1 0.175 0.316904 0.386765
83 1 0.675 0.316904 0.386765
11 1 0.175 0.451941 0.377866
59 1 0.675 0.451941 0.377866
39 1 0.425 0.566904 0.386765
87 1 0.925 0.566904 0.386765
113 1 0.425 0.701941 0.377866
161 1 0.925 0.701941 0.377866
131 1 0.175 0.816904 0.386765
179 1 0.675 0.816904 0.386765
107 1 0.175 0.951941 0.377866
155 1 0.675 0.951941 0.377866
108 1 0.175 0.144365 0.422093
156 1 0.675 0.144365 0.422093
115 1 0.425 0.0867953 0.468025
163 1 0.925 0.0867953 0.468025
132 1 0.175 0.0093285 0.432321
180 1 0.675 0.0093285 0.432321
40 1 0.175 0.201731 0.479058
88 1 0.675 0.201731 0.479058
43 1 0.425 0.259329 0.432321
91 1 0.925 0.259329 0.432321
15 1 0.175 0.336795 0.468025
63 1 0.675 0.336795 0.468025
18 1 0.425 0.394365 0.422093
66 1 0.925 0.394365 0.422093
44 1 0.425 0.451731 0.479058
92 1 0.925 0.451731 0.479058
36 1 0.175 0.509329 0.432321
84 1 0.675 0.509329 0.432321
19 1 0.425 0.586795 0.468025
67 1 0.925 0.586795 0.468025
12 1 0.175 0.644365 0.422093
60 1 0.675 0.644365 0.422093
136 1 0.175 0.701731 0.479058
184 1 0.675 0.701731 0.479058
139 1 0.425 0.759329 0.432321
187 1 0.925 0.759329 0.432321
111 1 0.175 0.836795 0.468025
159 1 0.675 0.836795 0.468025
114 1 0.425 0.894365 0.422093
162 1 0.925 0.894365 0.422093
140 1 0.425 0.951731 0.479058
188 1 0.925 0.951731 0.479058
141 1 0.425 0.144266 0.525461
189 1 0.925 0.144266 0.525461
138 1 0.175 0.0863256 0.571319
186 1 0.675 0.0863256 0.571319
112 1 0.175 0.0292424 0.514396
160 1 0.675 0.0292424 0.514396
20 1 0.175 0.221424 0.561201
68 1 0.675 0.221424 0.561201
24 1 0.425 0.279242 0.514396
72 1 0.925 0.279242 0.514396
47 1 0.425 0.336326 0.571319
95 1 0.925 0.336326 0.571319
41 1 0.175 0.394266 0.525461
89 1 0.675 0.394266 0.525461
22 1 0.425 0.471424 0.561201
70 1 0.925 0.471424 0.561201
16 1 0.175 0.529242 0.514396
64 1 0.675 0.529242 0.514396
42 1 0.175 0.586326 0.571319
90 1 0.675 0.586326 0.571319
45 1 0.425 0.644266 0.525461
93 1 0.925 0.644266 0.525461
116 1 0.175 0.721424 0.561201
164 1 0.675 0.721424 0.561201
120 1 0.425 0.779242 0.514396
168 1 0.925 0.779242 0.514396
143 1 0.425 0.836326 0.571319
191 1 0.925 0.836326 0.571319
137 1 0.175 0.894266 0.525461
185 1 0.675 0.894266 0.525461
118 1 0.425 0.971424 0.561201
166 1 0.925 0.971424 0.561201
119 1 0.425 0.164595 0.6065
167 1 0.925 0.164595 0.6065
144 1 0.425 0.030025 0.615691
192 1 0.925 0.030025 0.615691
46 1 0.175 0.280025 0.615691
94 1 0.675 0.280025 0.615691
21 1 0.175 0.414595 0.6065
69 1 0.675 0.414595 0.6065
48 1 0.425 0.530025 0.615691
96 1 0.925 0.530025 0.615691
23 1 0.425 0.664595 0.6065
71 1 0.925 0.664595 0.6065
142 1 0.175 0.780025 0.615691
190 1 0.675 0.780025 0.615691
117 1 0.175 0.914595 0.6065
165 1 0.675 0.914595 0.6065
