ITEM: TIMESTEP
244
ITEM: NUMBER OF ATOMS
192
ITEM: BOX BOUNDS pp pp pp
0.0000000000000000e+00 7.1176886540000002e+00
0.0000000000000000e+00 2.5858194780409800e+01
0.0000000000000000e+00 4.8301037599330101e+01
ITEM: ATOMS id type xs ys zs
1 1 0 0.121395 0
7 1 0.25 0.0650943 0.0443154
49 1 0.5 0.121395 0
55 1 0.75 0.0650943 0.0443154
2 1 3.36001e-17 0.315094 0.0443154
26 1 0 0.179996 0.0544561
28 1 0.25 0.236825 0.00919034
50 1 0.5 0.315094 0.0443154
74 1 0.5 0.179996 0.0544561
76 1 0.75 0.236825 0.00919034
3 1 0.25 0.371395 0
25 1 0 0.486825 0.00919034
29 1 0.25 0.429996 0.0544561
51 1 0.75 0.371395 0
73 1 0.5 0.486825 0.00919034
77 1 0.75 0.429996 0.0544561
97 1 0 0.621395 0
103 1 0.25 0.565094 0.0443154
145 1 0.5 0.621395 0
151 1 0.75 0.565094 0.0443154
98 1 3.56679e-17 0.815094 0.0443154
122 1 4.00817e-17 0.679996 0.0544561
124 1 0.25 0.736825 0.00919034
146 1 0.5 0.815094 0.0443154
170 1 0.5 0.679996 0.0544561
172 1 0.75 0.736825 0.00919034
99 1 0.25 0.871395 0
121 1 0 0.986825 0.00919034
125 1 0.25 0.929996 0.0544561
147 1 0.75 0.871395 0
169 1 0.5 0.986825 0.00919034
173 1 0.75 0.929996 0.0544561
4 1 0 0.00715404 0.0900864
33 1 0.25 0.122177 0.10118
52 1 0.5 0.00715404 0.0900864
81 1 0.75 0.122177 0.10118
30 1 3.41948e-17 0.0646243 0.147467
78 1 0.5 0.0646243 0.147467
5 1 1 0.199689 0.136409
8 1 0.25 0.257154 0.0900864
53 1 0.5 0.199689 0.136409
56 1 0.75 0.257154 0.0900864
34 1 0.25 0.314624 0.147467
82 1 0.75 0.314624 0.147467
9 1 0.25 0.449689 0.136409
27 1 0 0.372177 0.10118
57 1 0.75 0.449689 0.136409
75 1 0.5 0.372177 0.10118
100 1 1.04306e-17 0.507154 0.0900864
129 1 0.25 0.622177 0.10118
148 1 0.5 0.507154 0.0900864
177 1 0.75 0.622177 0.10118
126 1 0 0.564624 0.147467
174 1 0.5 0.564624 0.147467
101 1 0 0.699689 0.136409
104 1 0.25 0.757154 0.0900864
149 1 0.5 0.699689 0.136409
152 1 0.75 0.757154 0.0900864
130 1 0.25 0.814624 0.147467
178 1 0.75 0.814624 0.147467
105 1 0.25 0.949689 0.136409
123 1 1.74769e-17 0.872177 0.10118
153 1 0.75 0.949689 0.136409
171 1 0.5 0.872177 0.10118
13 1 0.25 0.142091 0.183062
37 1 0.25 0.00705467 0.193315
61 1 0.75 0.142091 0.183062
85 1 0.75 0.00705467 0.193315
10 1 0 0.0845159 0.228599
58 1 0.5 0.0845159 0.228599
31 1 4.88341e-17 0.257055 0.193315
79 1 0.5 0.257055 0.193315
38 1 0.25 0.199479 0.237477
86 1 0.75 0.199479 0.237477
6 1 0 0.392091 0.183062
54 1 0.5 0.392091 0.183062
14 1 0.25 0.334516 0.228599
32 1 0 0.449479 0.237477
62 1 0.75 0.334516 0.228599
80 1 0.5 0.449479 0.237477
109 1 0.25 0.642091 0.183062
133 1 0.25 0.507055 0.193315
157 1 0.75 0.642091 0.183062
181 1 0.75 0.507055 0.193315
106 1 0 0.584516 0.228599
154 1 0.5 0.584516 0.228599
127 1 4.16389e-17 0.757055 0.193315
175 1 0.5 0.757055 0.193315
134 1 0.25 0.699479 0.237477
182 1 0.75 0.699479 0.237477
102 1 7.3366e-17 0.892091 0.183062
150 1 0.5 0.892091 0.183062
110 1 0.25 0.834516 0.228599
128 1 1 0.949479 0.237477
158 1 0.75 0.834516 0.228599
176 1 0.5 0.949479 0.237477
135 1 0.458333 0.100237 0.387092
183 1 0.958333 0.100237 0.387092
17 1 0.458333 0.235274 0.378214
65 1 0.958333 0.235274 0.378214
35 1 0.208333 0.350237 0.387092
83 1 0.708333 0.350237 0.387092
11 1 0.208333 0.485274 0.378214
59 1 0.708333 0.485274 0.378214
39 1 0.458333 0.600237 0.387092
87 1 0.958333 0.600237 0.387092
113 1 0.458333 0.735274 0.378214
161 1 0.958333 0.735274 0.378214
131 1 0.208333 0.850237 0.387092
179 1 0.708333 0.850237 0.387092
107 1 0.208333 0.985274 0.378214
155 1 0.708333 0.985274 0.378214
115 1 0.458333 0.120129 0.468224
163 1 0.958333 0.120129 0.468224
132 1 0.208333 0.0426618 0.432628
180 1 0.708333 0.0426618 0.432628
108 1 0.208333 0.177698 0.422376
156 1 0.708333 0.177698 0.422376
40 1 0.208333 0.235064 0.479281
88 1 0.708333 0.235064 0.479281
43 1 0.458333 0.292662 0.432628
91 1 0.958333 0.292662 0.432628
15 1 0.208333 0.370129 0.468224
63 1 0.708333 0.370129 0.468224
18 1 0.458333 0.427698 0.422376
66 1 0.958333 0.427698 0.422376
44 1 0.458333 0.485064 0.479281
92 1 0.958333 0.485064 0.479281
36 1 0.208333 0.542662 0.432628
84 1 0.708333 0.542662 0.432628
19 1 0.458333 0.620129 0.468224
67 1 0.958333 0.620129 0.468224
12 1 0.208333 0.677698 0.422376
60 1 0.708333 0.677698 0.422376
136 1 0.208333 0.735064 0.479281
184 1 0.708333 0.735064 0.479281
139 1 0.458333 0.792662 0.432628
187 1 0.958333 0.792662 0.432628
111 1 0.208333 0.870129 0.468224
159 1 0.708333 0.870129 0.468224
114 1 0.458333 0.927698 0.422376
162 1 0.958333 0.927698 0.422376
140 1 0.458333 0.985064 0.479281
188 1 0.958333 0.985064 0.479281
138 1 0.208333 0.119659 0.571375
186 1 0.708333 0.119659 0.571375
112 1 0.208333 0.0625757 0.514511
160 1 0.708333 0.0625757 0.514511
118 1 0.458333 0.00475729 0.561234
166 1 0.958333 0.00475729 0.561234
141 1 0.458333 0.177599 0.525604
189 1 0.958333 0.177599 0.525604
20 1 0.208333 0.254757 0.561234
68 1 0.708333 0.254757 0.561234
24 1 0.458333 0.312576 0.514511
72 1 0.958333 0.312576 0.514511
47 1 0.458333 0.369659 0.571375
95 1 0.958333 0.369659 0.571375
41 1 0.208333 0.427599 0.525604
89 1 0.708333 0.427599 0.525604
22 1 0.458333 0.504757 0.561234
70 1 0.958333 0.504757 0.561234
16 1 0.208333 0.562576 0.514511
64 1 0.708333 0.562576 0.514511
42 1 0.208333 0.619659 0.571375
90 1 0.708333 0.619659 0.571375
45 1 0.458333 0.677599 0.525604
93 1 0.958333 0.677599 0.525604
116 1 0.208333 0.754757 0.561234
164 1 0.708333 0.754757 0.561234
120 1 0.458333 0.812576 0.514511
168 1 0.958333 0.812576 0.514511
143 1 0.458333 0.869659 0.571375
191 1 0.958333 0.869659 0.571375
137 1 0.208333 0.927599 0.525604
185 1 0.708333 0.927599 0.525604
144 1 0.458333 0.0633583 0.615691
192 1 0.958333 0.0633583 0.615691
119 1 0.458333 0.197928 0.6065
167 1 0.958333 0.197928 0.6065
46 1 0.208333 0.313358 0.615691
94 1 0.708333 0.313358 0.615691
21 1 0.208333 0.447928 0.6065
69 1 0.708333 0.447928 0.6065
48 1 0.458333 0.563358 0.615691
96 1 0.958333 0.563358 0.615691
23 1 0.458333 0.697928 0.6065
71 1 0.958333 0.697928 0.6065
142 1 0.208333 0.813358 0.615691
190 1 0.708333 0.813358 0.615691
117 1 0.208333 0.947928 0.6065
165 1 0.708333 0.947928 0.6065
