LAMMPS data file via write_data, version 23 Jun 2022, timestep = 0

244 atoms
3 atom types

0 3.4641016151377553 xlo xhi
0 3.2659863237109046 ylo yhi
0 26.31370849898476 zlo zhi

Masses

1 47.867
2 47.867
3 47.867

Atoms # atomic

1 2 2.5980762113533165 2.220446049250313e-16 9.899494936611664 0 0 0
2 3 3.1754264805429417 0.40824829046386335 10.606601717798211 0 0 0
3 2 2.598076211353316 0 8.48528137423857 0 0 0
4 2 3.175426480542942 0.40824829046386313 9.192388155425117 0 0 0
5 2 2.5980762113533165 0 7.071067811865475 0 0 0
6 2 3.175426480542942 0.40824829046386313 7.778174593052022 0 0 0
7 2 2.5980762113533165 0 5.65685424949238 0 0 0
8 2 3.175426480542942 0.40824829046386313 6.363961030678928 0 0 0
9 1 2.5980762113533165 2.220446049250313e-16 4.242640687119285 0 0 0
10 1 3.175426480542942 0.4082482904638629 4.949747468305832 0 0 0
11 1 2.598076211353316 0 2.82842712474619 0 0 0
12 1 3.175426480542942 0.40824829046386313 3.5355339059327378 0 0 0
13 1 2.598076211353316 0 1.414213562373095 0 0 0
14 1 3.175426480542942 0.40824829046386313 2.121320343559642 0 0 0
15 3 2.5980762113533165 0 0 0 0 0
16 1 3.175426480542942 0.4082482904638629 0.7071067811865475 0 0 0
17 2 0.8660254037844386 5.551115123125783e-17 9.899494936611664 0 0 0
18 3 1.4433756729740648 0.4082482904638632 10.606601717798213 0 0 0
19 2 0.8660254037844386 5.551115123125783e-17 8.48528137423857 0 0 0
20 2 1.4433756729740643 0.4082482904638632 9.192388155425117 0 0 0
21 2 1.7320508075688772 1.1102230246251565e-16 9.899494936611664 0 0 0
22 2 2.0207259421636907 0.8164965809277263 9.899494936611664 0 0 0
23 3 2.3094010767585034 0.40824829046386324 10.606601717798213 0 0 0
24 3 2.598076211353316 1.2247448713915894 10.606601717798211 0 0 0
25 2 1.4433756729740643 0.40824829046386296 7.7781745930520225 0 0 0
26 2 1.7320508075688772 1.1102230246251565e-16 8.48528137423857 0 0 0
27 2 2.0207259421636903 0.816496580927726 8.48528137423857 0 0 0
28 2 2.3094010767585034 0.40824829046386324 9.192388155425117 0 0 0
29 2 2.5980762113533165 1.2247448713915892 9.192388155425117 0 0 0
30 2 2.8867513459481295 0.8164965809277264 9.899494936611665 0 0 0
31 2 3.1754264805429417 1.6329931618554525 9.899494936611664 0 0 0
32 2 0.866025403784439 5.551115123125783e-17 5.65685424949238 0 0 0
33 2 1.4433756729740648 0.40824829046386296 6.363961030678927 0 0 0
34 2 2.0207259421636907 0.816496580927726 7.071067811865475 0 0 0
35 2 2.309401076758503 0.408248290463863 7.778174593052022 0 0 0
36 2 2.5980762113533165 1.2247448713915892 7.778174593052022 0 0 0
37 2 2.886751345948129 0.8164965809277261 8.48528137423857 0 0 0
38 2 3.1754264805429426 1.6329931618554525 8.48528137423857 0 0 0
39 1 0.8660254037844386 5.551115123125783e-17 4.242640687119285 0 0 0
40 1 1.4433756729740648 0.4082482904638632 4.949747468305833 0 0 0
41 2 2.0207259421636907 0.816496580927726 5.65685424949238 0 0 0
42 2 2.3094010767585034 0.408248290463863 6.363961030678928 0 0 0
43 2 2.5980762113533165 1.2247448713915892 6.363961030678928 0 0 0
44 2 2.8867513459481287 0.8164965809277261 7.071067811865474 0 0 0
45 2 3.175426480542942 1.6329931618554525 7.071067811865475 0 0 0
46 1 1.4433756729740643 0.4082482904638631 3.535533905932737 0 0 0
47 1 1.7320508075688776 0 4.242640687119285 0 0 0
48 1 2.0207259421636907 0.8164965809277263 4.242640687119285 0 0 0
49 1 2.3094010767585034 0.4082482904638628 4.949747468305832 0 0 0
50 1 2.5980762113533165 1.224744871391589 4.949747468305832 0 0 0
51 2 2.8867513459481295 0.8164965809277259 5.65685424949238 0 0 0
52 2 3.175426480542942 1.632993161855452 5.65685424949238 0 0 0
53 1 1.4433756729740645 0.40824829046386296 2.1213203435596424 0 0 0
54 1 2.0207259421636903 0.816496580927726 2.82842712474619 0 0 0
55 1 2.3094010767585034 0.408248290463863 3.5355339059327373 0 0 0
56 1 2.5980762113533165 1.2247448713915892 3.5355339059327378 0 0 0
57 1 2.886751345948129 0.8164965809277259 4.242640687119285 0 0 0
58 1 3.175426480542942 1.632993161855452 4.242640687119285 0 0 0
59 3 0.8660254037844388 0 0 0 0 0
60 1 1.4433756729740645 0.4082482904638631 0.7071067811865475 0 0 0
61 1 1.7320508075688776 0 1.414213562373095 0 0 0
62 1 2.0207259421636903 0.816496580927726 1.414213562373095 0 0 0
63 1 2.3094010767585034 0.408248290463863 2.1213203435596424 0 0 0
64 1 2.5980762113533165 1.2247448713915892 2.121320343559642 0 0 0
65 1 2.886751345948129 0.8164965809277261 2.82842712474619 0 0 0
66 1 3.1754264805429426 1.632993161855452 2.82842712474619 0 0 0
67 3 1.7320508075688776 0 0 0 0 0
68 3 2.0207259421636907 0.816496580927726 0 0 0 0
69 1 2.3094010767585034 0.408248290463863 0.7071067811865475 0 0 0
70 1 2.5980762113533165 1.224744871391589 0.7071067811865475 0 0 0
71 1 2.886751345948129 0.8164965809277261 1.414213562373095 0 0 0
72 1 3.175426480542942 1.632993161855452 1.4142135623730947 0 0 0
73 3 2.886751345948129 0.8164965809277261 0 0 0 0
74 3 3.175426480542942 1.632993161855452 0 0 0 0
75 2 0 0 9.899494936611664 0 0 0
76 2 0.2886751345948128 0.8164965809277263 9.899494936611664 0 0 0
77 3 0.5773502691896262 0.40824829046386313 10.606601717798211 0 0 0
78 3 0.866025403784439 1.2247448713915894 10.606601717798213 0 0 0
79 2 0 0 8.48528137423857 0 0 0
80 2 0.2886751345948128 0.8164965809277263 8.48528137423857 0 0 0
81 2 0.5773502691896253 0.40824829046386313 9.192388155425117 0 0 0
82 2 0.8660254037844386 1.2247448713915894 9.192388155425117 0 0 0
83 2 1.1547005383792515 0.8164965809277263 9.899494936611664 0 0 0
84 2 1.4433756729740648 1.6329931618554525 9.899494936611664 0 0 0
85 3 1.7320508075688776 1.2247448713915894 10.606601717798213 0 0 0
86 3 2.02072594216369 2.0412414523193156 10.606601717798211 0 0 0
87 2 0 0 7.071067811865475 0 0 0
88 2 0.2886751345948128 0.816496580927726 7.071067811865475 0 0 0
89 2 0.5773502691896262 0.40824829046386313 7.778174593052022 0 0 0
90 2 0.8660254037844386 1.2247448713915892 7.7781745930520225 0 0 0
91 2 1.1547005383792515 0.8164965809277263 8.48528137423857 0 0 0
92 2 1.4433756729740643 1.6329931618554523 8.48528137423857 0 0 0
93 2 1.7320508075688776 1.2247448713915894 9.192388155425117 0 0 0
94 2 2.0207259421636903 2.041241452319315 9.192388155425117 0 0 0
95 2 2.309401076758504 1.6329931618554525 9.899494936611665 0 0 0
96 2 2.5980762113533156 2.4494897427831788 9.899494936611664 0 0 0
97 3 2.886751345948129 2.041241452319315 10.606601717798211 0 0 0
98 3 3.1754264805429417 2.857738033247041 10.606601717798213 0 0 0
99 2 0 0 5.65685424949238 0 0 0
100 2 0.28867513459481325 0.8164965809277263 5.65685424949238 0 0 0
101 2 0.5773502691896257 0.4082482904638629 6.363961030678928 0 0 0
102 2 0.866025403784439 1.2247448713915892 6.363961030678927 0 0 0
103 2 1.154700538379252 0.816496580927726 7.071067811865475 0 0 0
104 2 1.4433756729740648 1.6329931618554523 7.071067811865475 0 0 0
105 2 1.7320508075688772 1.2247448713915892 7.778174593052022 0 0 0
106 2 2.0207259421636903 2.041241452319315 7.778174593052022 0 0 0
107 2 2.3094010767585034 1.6329931618554523 8.48528137423857 0 0 0
108 2 2.5980762113533165 2.4494897427831788 8.48528137423857 0 0 0
109 2 2.8867513459481295 2.0412414523193156 9.192388155425117 0 0 0
110 2 3.1754264805429417 2.857738033247042 9.192388155425117 0 0 0
111 1 0 0 4.242640687119285 0 0 0
112 1 0.2886751345948128 0.8164965809277263 4.242640687119285 0 0 0
113 1 0.5773502691896257 0.40824829046386313 4.949747468305832 0 0 0
114 1 0.866025403784439 1.2247448713915894 4.949747468305833 0 0 0
115 2 1.1547005383792515 0.816496580927726 5.65685424949238 0 0 0
116 2 1.4433756729740648 1.6329931618554523 5.65685424949238 0 0 0
117 2 1.7320508075688776 1.2247448713915892 6.363961030678928 0 0 0
118 2 2.0207259421636903 2.041241452319315 6.363961030678928 0 0 0
119 2 2.309401076758503 1.6329931618554523 7.071067811865474 0 0 0
120 2 2.598076211353316 2.4494897427831788 7.071067811865475 0 0 0
121 2 2.886751345948129 2.0412414523193156 7.778174593052022 0 0 0
122 2 3.175426480542942 2.857738033247042 7.7781745930520225 0 0 0
123 1 0 0 2.82842712474619 0 0 0
124 1 0.2886751345948128 0.816496580927726 2.82842712474619 0 0 0
125 1 0.577350269189626 0.408248290463863 3.5355339059327373 0 0 0
126 1 0.8660254037844386 1.2247448713915892 3.535533905932737 0 0 0
127 1 1.1547005383792517 0.8164965809277261 4.242640687119285 0 0 0
128 1 1.4433756729740648 1.6329931618554525 4.242640687119285 0 0 0
129 1 1.7320508075688774 1.224744871391589 4.949747468305832 0 0 0
130 1 2.0207259421636903 2.041241452319315 4.949747468305832 0 0 0
131 2 2.309401076758504 1.632993161855452 5.65685424949238 0 0 0
132 2 2.598076211353316 2.4494897427831783 5.65685424949238 0 0 0
133 2 2.886751345948129 2.041241452319315 6.363961030678927 0 0 0
134 2 3.1754264805429417 2.8577380332470415 6.363961030678927 0 0 0
135 1 0 0 1.414213562373095 0 0 0
136 1 0.28867513459481303 0.816496580927726 1.414213562373095 0 0 0
137 1 0.5773502691896258 0.4082482904638631 2.1213203435596424 0 0 0
138 1 0.8660254037844388 1.2247448713915892 2.1213203435596424 0 0 0
139 1 1.154700538379252 0.816496580927726 2.82842712474619 0 0 0
140 1 1.4433756729740645 1.6329931618554523 2.82842712474619 0 0 0
141 1 1.7320508075688776 1.2247448713915892 3.5355339059327373 0 0 0
142 1 2.0207259421636903 2.041241452319315 3.5355339059327378 0 0 0
143 1 2.3094010767585034 1.632993161855452 4.242640687119285 0 0 0
144 1 2.598076211353316 2.4494897427831783 4.242640687119285 0 0 0
145 1 2.8867513459481295 2.041241452319315 4.949747468305832 0 0 0
146 1 3.1754264805429417 2.8577380332470415 4.949747468305833 0 0 0
147 3 0 0 0 0 0 0
148 3 0.2886751345948129 0.8164965809277261 0 0 0 0
149 1 0.5773502691896258 0.4082482904638631 0.7071067811865475 0 0 0
150 1 0.8660254037844388 1.2247448713915892 0.7071067811865475 0 0 0
151 1 1.1547005383792517 0.8164965809277261 1.414213562373095 0 0 0
152 1 1.4433756729740645 1.6329931618554523 1.414213562373095 0 0 0
153 1 1.7320508075688776 1.2247448713915892 2.1213203435596424 0 0 0
154 1 2.0207259421636903 2.041241452319315 2.121320343559642 0 0 0
155 1 2.3094010767585034 1.6329931618554523 2.82842712474619 0 0 0
156 1 2.5980762113533165 2.4494897427831783 2.82842712474619 0 0 0
157 1 2.886751345948129 2.041241452319315 3.5355339059327373 0 0 0
158 1 3.175426480542942 2.8577380332470415 3.535533905932737 0 0 0
159 3 1.1547005383792517 0.8164965809277261 0 0 0 0
160 3 1.4433756729740648 1.6329931618554523 0 0 0 0
161 1 1.7320508075688776 1.2247448713915892 0.7071067811865475 0 0 0
162 1 2.0207259421636903 2.041241452319315 0.7071067811865475 0 0 0
163 1 2.3094010767585034 1.6329931618554523 1.414213562373095 0 0 0
164 1 2.598076211353316 2.4494897427831783 1.4142135623730947 0 0 0
165 1 2.886751345948129 2.041241452319315 2.1213203435596424 0 0 0
166 1 3.175426480542942 2.8577380332470415 2.121320343559643 0 0 0
167 3 2.3094010767585034 1.6329931618554523 0 0 0 0
168 3 2.598076211353316 2.4494897427831783 0 0 0 0
169 1 2.886751345948129 2.041241452319315 0.7071067811865475 0 0 0
170 1 3.1754264805429417 2.8577380332470415 0.7071067811865472 0 0 0
171 3 3.3306690738754696e-16 1.2247448713915894 10.606601717798211 0 0 0
172 3 0.2886751345948131 2.0412414523193156 10.606601717798213 0 0 0
173 2 0.28867513459481264 2.0412414523193156 9.192388155425117 0 0 0
174 2 0.5773502691896256 1.6329931618554525 9.899494936611664 0 0 0
175 2 0.8660254037844388 2.4494897427831788 9.899494936611664 0 0 0
176 3 1.154700538379252 2.0412414523193156 10.606601717798213 0 0 0
177 3 1.443375672974064 2.857738033247042 10.606601717798211 0 0 0
178 2 3.3306690738754696e-16 1.2247448713915894 7.778174593052022 0 0 0
179 2 0.28867513459481264 2.041241452319315 7.7781745930520225 0 0 0
180 2 0.5773502691896256 1.6329931618554525 8.48528137423857 0 0 0
181 2 0.8660254037844384 2.4494897427831783 8.48528137423857 0 0 0
182 2 1.154700538379252 2.0412414523193156 9.192388155425117 0 0 0
183 2 1.4433756729740645 2.8577380332470415 9.192388155425117 0 0 0
184 2 1.732050807568878 2.4494897427831788 9.899494936611665 0 0 0
185 3 2.3094010767585034 2.8577380332470415 10.606601717798211 0 0 0
186 2 0.2886751345948131 2.041241452319315 6.363961030678927 0 0 0
187 2 0.5773502691896261 1.632993161855452 7.071067811865475 0 0 0
188 2 0.8660254037844388 2.4494897427831783 7.071067811865475 0 0 0
189 2 1.1547005383792515 2.041241452319315 7.778174593052022 0 0 0
190 2 1.4433756729740645 2.8577380332470415 7.778174593052022 0 0 0
191 2 1.7320508075688776 2.4494897427831783 8.48528137423857 0 0 0
192 2 2.309401076758504 2.857738033247042 9.192388155425117 0 0 0
193 1 0.2886751345948131 2.0412414523193156 4.949747468305833 0 0 0
194 2 0.5773502691896256 1.632993161855452 5.65685424949238 0 0 0
195 2 0.8660254037844388 2.4494897427831783 5.65685424949238 0 0 0
196 2 1.154700538379252 2.041241452319315 6.363961030678928 0 0 0
197 2 1.4433756729740645 2.8577380332470415 6.363961030678928 0 0 0
198 2 1.7320508075688772 2.4494897427831783 7.071067811865474 0 0 0
199 2 2.3094010767585034 2.857738033247042 7.778174593052022 0 0 0
200 1 1.1102230246251565e-16 1.2247448713915892 3.5355339059327373 0 0 0
201 1 0.28867513459481264 2.041241452319315 3.535533905932737 0 0 0
202 1 0.5773502691896258 1.6329931618554523 4.242640687119285 0 0 0
203 1 0.8660254037844388 2.4494897427831788 4.242640687119285 0 0 0
204 1 1.1547005383792515 2.041241452319315 4.949747468305832 0 0 0
205 1 1.4433756729740645 2.857738033247041 4.949747468305832 0 0 0
206 2 1.732050807568878 2.4494897427831783 5.65685424949238 0 0 0
207 2 2.3094010767585034 2.8577380332470415 6.363961030678927 0 0 0
208 1 0 1.2247448713915892 2.1213203435596424 0 0 0
209 1 0.28867513459481287 2.041241452319315 2.1213203435596424 0 0 0
210 1 0.5773502691896261 1.632993161855452 2.82842712474619 0 0 0
211 1 0.8660254037844386 2.4494897427831783 2.82842712474619 0 0 0
212 1 1.154700538379252 2.041241452319315 3.5355339059327373 0 0 0
213 1 1.4433756729740645 2.8577380332470415 3.5355339059327378 0 0 0
214 1 1.7320508075688776 2.4494897427831783 4.242640687119285 0 0 0
215 1 2.309401076758504 2.8577380332470415 4.949747468305832 0 0 0
216 1 0 1.2247448713915892 0.7071067811865475 0 0 0
217 1 0.28867513459481287 2.041241452319315 0.7071067811865475 0 0 0
218 1 0.5773502691896258 1.6329931618554523 1.414213562373095 0 0 0
219 1 0.8660254037844386 2.4494897427831783 1.414213562373095 0 0 0
220 1 1.154700538379252 2.041241452319315 2.1213203435596424 0 0 0
221 1 1.4433756729740645 2.8577380332470415 2.121320343559642 0 0 0
222 1 1.7320508075688776 2.4494897427831783 2.82842712474619 0 0 0
223 1 2.3094010767585034 2.8577380332470415 3.5355339059327373 0 0 0
224 3 0.5773502691896258 1.6329931618554523 0 0 0 0
225 3 0.8660254037844388 2.4494897427831783 0 0 0 0
226 1 1.154700538379252 2.041241452319315 0.7071067811865475 0 0 0
227 1 1.4433756729740645 2.857738033247041 0.7071067811865475 0 0 0
228 1 1.7320508075688776 2.4494897427831783 1.414213562373095 0 0 0
229 1 2.3094010767585034 2.8577380332470415 2.1213203435596424 0 0 0
230 3 1.7320508075688776 2.4494897427831783 0 0 0 0
231 1 2.3094010767585034 2.8577380332470415 0.7071067811865475 0 0 0
232 3 0.577350269189626 2.857738033247042 10.606601717798213 0 0 0
233 2 0.577350269189626 2.857738033247042 9.192388155425117 0 0 0
234 2 2.220446049250313e-16 2.4494897427831783 7.071067811865475 0 0 0
235 2 0.5773502691896255 2.8577380332470415 7.778174593052022 0 0 0
236 2 0.577350269189626 2.8577380332470415 6.363961030678928 0 0 0
237 1 0 2.4494897427831783 4.242640687119285 0 0 0
238 1 0.5773502691896257 2.857738033247041 4.949747468305832 0 0 0
239 1 2.220446049250313e-16 2.4494897427831783 2.82842712474619 0 0 0
240 1 0.577350269189626 2.8577380332470415 3.5355339059327373 0 0 0
241 1 0 2.4494897427831783 1.414213562373095 0 0 0
242 1 0.577350269189626 2.8577380332470415 2.1213203435596424 0 0 0
243 3 0 2.4494897427831783 0 0 0 0
244 1 0.577350269189626 2.8577380332470415 0.7071067811865475 0 0 0

Velocities

1 0 0 0
2 0 0 0
3 0 0 0
4 0 0 0
5 0 0 0
6 0 0 0
7 0 0 0
8 0 0 0
9 0 0 0
10 0 0 0
11 0 0 0
12 0 0 0
13 0 0 0
14 0 0 0
15 0 0 0
16 0 0 0
17 0 0 0
18 0 0 0
19 0 0 0
20 0 0 0
21 0 0 0
22 0 0 0
23 0 0 0
24 0 0 0
25 0 0 0
26 0 0 0
27 0 0 0
28 0 0 0
29 0 0 0
30 0 0 0
31 0 0 0
32 0 0 0
33 0 0 0
34 0 0 0
35 0 0 0
36 0 0 0
37 0 0 0
38 0 0 0
39 0 0 0
40 0 0 0
41 0 0 0
42 0 0 0
43 0 0 0
44 0 0 0
45 0 0 0
46 0 0 0
47 0 0 0
48 0 0 0
49 0 0 0
50 0 0 0
51 0 0 0
52 0 0 0
53 0 0 0
54 0 0 0
55 0 0 0
56 0 0 0
57 0 0 0
58 0 0 0
59 0 0 0
60 0 0 0
61 0 0 0
62 0 0 0
63 0 0 0
64 0 0 0
65 0 0 0
66 0 0 0
67 0 0 0
68 0 0 0
69 0 0 0
70 0 0 0
71 0 0 0
72 0 0 0
73 0 0 0
74 0 0 0
75 0 0 0
76 0 0 0
77 0 0 0
78 0 0 0
79 0 0 0
80 0 0 0
81 0 0 0
82 0 0 0
83 0 0 0
84 0 0 0
85 0 0 0
86 0 0 0
87 0 0 0
88 0 0 0
89 0 0 0
90 0 0 0
91 0 0 0
92 0 0 0
93 0 0 0
94 0 0 0
95 0 0 0
96 0 0 0
97 0 0 0
98 0 0 0
99 0 0 0
100 0 0 0
101 0 0 0
102 0 0 0
103 0 0 0
104 0 0 0
105 0 0 0
106 0 0 0
107 0 0 0
108 0 0 0
109 0 0 0
110 0 0 0
111 0 0 0
112 0 0 0
113 0 0 0
114 0 0 0
115 0 0 0
116 0 0 0
117 0 0 0
118 0 0 0
119 0 0 0
120 0 0 0
121 0 0 0
122 0 0 0
123 0 0 0
124 0 0 0
125 0 0 0
126 0 0 0
127 0 0 0
128 0 0 0
129 0 0 0
130 0 0 0
131 0 0 0
132 0 0 0
133 0 0 0
134 0 0 0
135 0 0 0
136 0 0 0
137 0 0 0
138 0 0 0
139 0 0 0
140 0 0 0
141 0 0 0
142 0 0 0
143 0 0 0
144 0 0 0
145 0 0 0
146 0 0 0
147 0 0 0
148 0 0 0
149 0 0 0
150 0 0 0
151 0 0 0
152 0 0 0
153 0 0 0
154 0 0 0
155 0 0 0
156 0 0 0
157 0 0 0
158 0 0 0
159 0 0 0
160 0 0 0
161 0 0 0
162 0 0 0
163 0 0 0
164 0 0 0
165 0 0 0
166 0 0 0
167 0 0 0
168 0 0 0
169 0 0 0
170 0 0 0
171 0 0 0
172 0 0 0
173 0 0 0
174 0 0 0
175 0 0 0
176 0 0 0
177 0 0 0
178 0 0 0
179 0 0 0
180 0 0 0
181 0 0 0
182 0 0 0
183 0 0 0
184 0 0 0
185 0 0 0
186 0 0 0
187 0 0 0
188 0 0 0
189 0 0 0
190 0 0 0
191 0 0 0
192 0 0 0
193 0 0 0
194 0 0 0
195 0 0 0
196 0 0 0
197 0 0 0
198 0 0 0
199 0 0 0
200 0 0 0
201 0 0 0
202 0 0 0
203 0 0 0
204 0 0 0
205 0 0 0
206 0 0 0
207 0 0 0
208 0 0 0
209 0 0 0
210 0 0 0
211 0 0 0
212 0 0 0
213 0 0 0
214 0 0 0
215 0 0 0
216 0 0 0
217 0 0 0
218 0 0 0
219 0 0 0
220 0 0 0
221 0 0 0
222 0 0 0
223 0 0 0
224 0 0 0
225 0 0 0
226 0 0 0
227 0 0 0
228 0 0 0
229 0 0 0
230 0 0 0
231 0 0 0
232 0 0 0
233 0 0 0
234 0 0 0
235 0 0 0
236 0 0 0
237 0 0 0
238 0 0 0
239 0 0 0
240 0 0 0
241 0 0 0
242 0 0 0
243 0 0 0
244 0 0 0
