ITEM: TIMESTEP
653
ITEM: NUMBER OF ATOMS
249
ITEM: BOX BOUNDS pp pp pp
0.0000000000000000e+00 1.1265258452427979e+01
0.0000000000000000e+00 1.0620987524707861e+01
0.0000000000000000e+00 5.1792180038698433e+01
ITEM: ATOMS id type xs ys zs
6 3 0.25 0 0
24 3 0 0 0
25 3 0.0833333 0.25 0
26 1 0.207415 0.125 0.0451386
27 1 0.247793 0.375 0.0435181
52 3 0.166667 0.5 0
7 1 0.454912 0.125 0.0450092
12 3 0.5 0 0
13 3 0.583333 0.25 0
32 3 0.333333 0.25 0
33 3 0.416667 0.5 0
34 1 0.496995 0.375 0.0430994
46 1 0.997265 0.375 0.0436879
2 3 0.75 0 0
3 1 0.963997 0.125 0.0438403
14 1 0.715173 0.125 0.046389
15 1 0.74615 0.375 0.0429716
18 3 0.833333 0.25 0
19 3 0.916667 0.5 0
40 3 0.666667 0.5 0
47 1 0.0882055 0.625 0.0428474
53 3 0.25 0.75 0
62 3 0 0.75 0
63 1 0.125186 0.875 0.0446762
35 1 0.586925 0.625 0.0436528
54 1 0.336832 0.625 0.0433121
55 1 0.373693 0.875 0.0446239
58 3 0.5 0.75 0
59 1 0.617196 0.875 0.0422251
41 3 0.75 0.75 0
42 1 0.83844 0.625 0.0427105
43 1 0.867551 0.875 0.0455641
4 1 0.286152 2.09062e-17 0.0891816
20 1 0.0188522 0 0.0885523
21 1 0.112925 0.25 0.0900938
22 1 0.228397 0.125 0.136722
23 1 0.257321 0.375 0.132879
48 1 0.147336 0.5 0.0875286
44 1 0.00632803 0.375 0.132389
5 1 0.473666 0.125 0.131227
8 1 0.555253 0 0.0878438
9 1 0.605543 0.25 0.0878716
28 1 0.359733 0.25 0.0895008
29 1 0.398671 0.5 0.0875756
30 1 0.508229 0.375 0.133607
36 1 0.647253 0.5 0.087978
1 1 0.973405 0.125 0.136098
10 1 0.72615 0.125 0.128141
11 1 0.757829 0.375 0.132968
16 1 0.862625 0.25 0.088406
17 1 0.89499 0.5 0.0874655
45 1 0.105774 0.625 0.132867
49 1 0.240332 0.75 0.0886372
61 1 0.119584 0.875 0.130815
31 1 0.607603 0.625 0.132717
50 1 0.35763 0.625 0.132576
51 1 0.369003 0.875 0.136175
56 1 0.485302 0.75 0.0892227
57 1 0.624514 0.875 0.135413
60 1 0.99367 0.75 0.0866576
37 1 0.735985 0.75 0.0875692
38 1 0.8574 0.625 0.132629
39 1 0.869722 0.875 0.129897
114 1 0.153106 0.5 0.177298
86 1 0.0772571 0 0.177852
87 1 0.117451 0.25 0.177925
88 1 0.237236 0.125 0.218485
89 1 0.267656 0.375 0.222491
108 1 0.0172706 0.375 0.222809
69 1 0.483962 0.125 0.223892
74 1 0.526684 4.18124e-17 0.177411
75 1 0.626463 0.25 0.177281
94 1 0.372712 0.25 0.177544
95 1 0.402163 0.5 0.177391
96 1 0.516851 0.375 0.221343
102 1 0.654949 0.5 0.177683
65 1 0.800647 0 0.177418
66 1 0.980452 0.125 0.219228
76 1 0.735035 0.125 0.22568
77 1 0.766363 0.375 0.222407
80 1 0.869295 0.25 0.178065
81 1 0.904927 0.5 0.177375
125 1 0.133392 0.875 0.224238
115 1 0.244797 0.75 0.177161
109 1 0.1173 0.625 0.222205
120 1 0.502444 0.75 0.177162
117 1 0.378711 0.875 0.219757
116 1 0.36703 0.625 0.222617
97 1 0.615462 0.625 0.223123
121 1 0.629503 0.875 0.21989
124 1 0.991963 0.75 0.177988
105 1 0.876203 0.875 0.226586
104 1 0.867137 0.625 0.222582
103 1 0.749549 0.75 0.177874
67 1 0.311119 4.18124e-17 0.266399
110 1 0.165629 0.5 0.267232
82 1 0.0424732 0 0.265732
83 1 0.130377 0.25 0.264971
84 1 0.239781 0.125 0.311315
85 1 0.269085 0.375 0.310342
106 1 0.0205208 0.375 0.309961
68 1 0.494015 0.125 0.311893
70 1 0.578673 0 0.266842
71 1 0.620732 0.25 0.266871
90 1 0.376208 0.25 0.265933
91 1 0.41624 0.5 0.26719
92 1 0.51836 0.375 0.310918
98 1 0.66499 0.5 0.267077
64 1 0.996364 0.125 0.312816
72 1 0.756474 0.125 0.303129
73 1 0.771269 0.375 0.311081
78 1 0.883436 0.25 0.265217
79 1 0.912606 0.5 0.267376
123 1 0.140061 0.875 0.30894
111 1 0.257393 0.75 0.267744
107 1 0.122356 0.625 0.313092
122 1 0.0111259 0.75 0.267205
118 1 0.499313 0.75 0.268373
113 1 0.382827 0.875 0.316381
112 1 0.371681 0.625 0.31322
93 1 0.62077 0.625 0.31196
119 1 0.640072 0.875 0.316703
101 1 0.890844 0.875 0.307312
100 1 0.870927 0.625 0.312466
99 1 0.749505 0.75 0.267926
176 2 0.218073 0.5 0.356453
170 2 0.0521286 0.375 0.400214
151 2 0.300267 0.375 0.400487
150 2 0.259972 0.125 0.399387
149 2 0.140719 0.25 0.355679
148 2 0.100639 0 0.356787
129 2 0.00711211 0.125 0.399903
158 2 0.550122 0.375 0.3989
157 2 0.466343 0.5 0.355938
156 2 0.385384 0.25 0.355225
137 2 0.655797 0.25 0.352085
132 2 0.52343 0.125 0.395138
143 2 0.966014 0.5 0.356103
142 2 0.898786 0.25 0.355185
139 2 0.800745 0.375 0.399043
138 2 0.765256 0.125 0.400347
128 2 0.825711 0 0.353974
187 2 0.163717 0.875 0.402673
177 2 0.255477 0.75 0.357663
171 2 0.118122 0.625 0.40053
186 2 0.0107582 0.75 0.355031
182 2 0.52088 0.75 0.35759
179 2 0.41042 0.875 0.397848
178 2 0.372843 0.625 0.400478
159 2 0.622042 0.625 0.401177
183 2 0.67276 0.875 0.398339
167 2 0.922146 0.875 0.399652
166 2 0.869764 0.625 0.400728
165 2 0.769871 0.75 0.35605
164 2 0.713337 0.5 0.356198
168 2 0.0582732 0.375 0.488352
147 2 0.309477 0.375 0.488185
146 2 0.27523 0.125 0.489255
145 2 0.159303 0.25 0.444528
144 2 0.0656298 0 0.444608
130 2 0.317361 4.18124e-17 0.444773
127 2 0.0223519 0.125 0.48938
154 2 0.557691 0.375 0.488652
153 2 0.46426 0.5 0.444812
152 2 0.411694 0.25 0.442693
134 2 0.658271 0.25 0.443303
133 2 0.562666 8.36248e-17 0.442487
131 2 0.523536 0.125 0.488984
126 2 0.814852 0 0.444008
160 2 0.712991 0.5 0.444733
141 2 0.962273 0.5 0.444439
140 2 0.908943 0.25 0.444555
136 2 0.806689 0.375 0.488598
135 2 0.77106 0.125 0.488931
185 2 0.18192 0.875 0.489104
173 2 0.280844 0.75 0.444221
172 2 0.213554 0.5 0.444242
169 2 0.126303 0.625 0.488473
184 2 0.0265112 0.75 0.446023
180 2 0.529316 0.75 0.443678
175 2 0.432138 0.875 0.489162
174 2 0.374768 0.625 0.488656
155 2 0.623145 0.625 0.489273
181 2 0.676871 0.875 0.488862
163 2 0.927446 0.875 0.489381
162 2 0.873181 0.625 0.489365
161 2 0.778392 0.75 0.444905
232 2 0.0608878 0.375 0.577037
213 2 0.30924 0.375 0.577263
212 2 0.282764 0.125 0.579507
211 2 0.169222 0.25 0.53324
210 2 0.0755039 0 0.533629
193 2 0.326158 4.18124e-17 0.5336
191 2 0.0295579 0.125 0.578838
220 2 0.55949 0.375 0.577809
219 2 0.461829 0.5 0.53256
218 2 0.41931 0.25 0.534475
198 2 0.572103 8.36248e-17 0.535104
194 2 0.541596 0.125 0.581589
199 2 0.66702 0.25 0.533917
226 2 0.712115 0.5 0.533038
204 2 0.918103 0.25 0.532887
201 2 0.810997 0.375 0.577695
200 2 0.785684 0.125 0.578001
190 2 0.822524 0 0.533746
249 2 0.185268 0.875 0.576265
239 2 0.300295 0.75 0.533968
238 2 0.212869 0.5 0.532358
233 2 0.152471 0.625 0.577346
248 2 0.0466179 0.75 0.532177
244 2 0.548567 0.75 0.535066
241 2 0.431826 0.875 0.580925
240 2 0.404304 0.625 0.578004
221 2 0.652612 0.625 0.577721
245 2 0.692555 0.875 0.580488
229 2 0.94236 0.875 0.577927
228 2 0.901076 0.625 0.576986
227 2 0.795646 0.75 0.533704
205 2 0.963098 0.5 0.532674
234 2 0.257179 0.5 0.622533
230 3 0.0833333 0.375 0.665982
209 3 0.333333 0.375 0.665982
208 3 0.25 0.125 0.665982
207 2 0.167401 0.25 0.623185
206 2 0.129345 0 0.62171
216 3 0.583333 0.375 0.665982
214 2 0.414941 0.25 0.623417
192 3 0.5 0.125 0.665982
195 2 0.674779 0.25 0.623419
188 2 0.862034 8.36248e-17 0.621951
222 2 0.755589 0.5 0.622517
202 2 0.923158 0.25 0.622989
197 3 0.833333 0.375 0.665982
196 3 0.75 0.125 0.665982
189 3 1 0.125 0.665982
247 3 0.25 0.875 0.665982
235 2 0.296906 0.75 0.6219
231 3 0.166667 0.625 0.665982
246 2 0.0483722 0.75 0.621456
225 3 0 0.875 0.665982
203 2 0.00666924 0.5 0.622337
242 2 0.55818 0.75 0.622577
237 3 0.5 0.875 0.665982
236 3 0.416667 0.625 0.665982
217 3 0.666667 0.625 0.665982
215 2 0.506264 0.5 0.622678
243 3 0.75 0.875 0.665982
224 3 0.916667 0.625 0.665982
223 2 0.805009 0.75 0.622219
