ITEM: TIMESTEP
970
ITEM: NUMBER OF ATOMS
249
ITEM: BOX BOUNDS pp pp pp
0.0000000000000000e+00 1.1265258452427979e+01
0.0000000000000000e+00 1.0620987524707861e+01
0.0000000000000000e+00 5.1792180038698433e+01
ITEM: ATOMS id type xs ys zs
6 3 0.25 0 0
24 3 0 0 0
25 3 0.0833333 0.25 0
26 1 0.209779 0.125 0.0452673
27 1 0.252533 0.375 0.043516
52 3 0.166667 0.5 0
46 1 0.00211249 0.375 0.0436313
7 1 0.458188 0.125 0.0450904
12 3 0.5 0 0
13 3 0.583333 0.25 0
32 3 0.333333 0.25 0
33 3 0.416667 0.5 0
34 1 0.501649 0.375 0.0430698
2 3 0.75 0 0
3 1 0.966197 0.125 0.0438663
14 1 0.717456 0.125 0.0464257
15 1 0.750706 0.375 0.0429635
18 3 0.833333 0.25 0
19 3 0.916667 0.5 0
40 3 0.666667 0.5 0
47 1 0.0891051 0.625 0.0429495
53 3 0.25 0.75 0
62 3 0 0.75 0
63 1 0.128181 0.875 0.0445633
35 1 0.588159 0.625 0.0439067
54 1 0.337679 0.625 0.0434597
55 1 0.376428 0.875 0.0445445
58 3 0.5 0.75 0
59 1 0.620087 0.875 0.0423787
41 3 0.75 0.75 0
42 1 0.839517 0.625 0.0429065
43 1 0.870281 0.875 0.0457047
4 1 0.291322 2.09062e-17 0.0888708
20 1 0.0261577 0 0.0882362
21 1 0.119482 0.25 0.0899438
22 1 0.239283 0.125 0.136269
23 1 0.267743 0.375 0.132693
48 1 0.156015 0.5 0.0873796
44 1 0.0165909 0.375 0.132378
5 1 0.484134 0.125 0.131963
8 1 0.558263 0 0.0883796
9 1 0.61212 0.25 0.0879608
28 1 0.366856 0.25 0.0894097
29 1 0.407646 0.5 0.0873002
30 1 0.518781 0.375 0.133347
36 1 0.656591 0.5 0.0877778
1 1 0.984079 0.125 0.135871
10 1 0.736346 0.125 0.127694
11 1 0.768549 0.375 0.133035
16 1 0.869872 0.25 0.0881836
17 1 0.903857 0.5 0.087387
45 1 0.115173 0.625 0.132902
49 1 0.248652 0.75 0.0887277
61 1 0.130129 0.875 0.130739
60 1 0.00160705 0.75 0.0866688
31 1 0.617234 0.625 0.132605
50 1 0.36745 0.625 0.132419
51 1 0.380941 0.875 0.13597
56 1 0.493612 0.75 0.0892523
57 1 0.636914 0.875 0.135309
37 1 0.744292 0.75 0.0875253
38 1 0.866662 0.625 0.132653
39 1 0.881611 0.875 0.130033
114 1 0.167564 0.5 0.17712
86 1 0.0907221 0 0.177572
87 1 0.131391 0.25 0.177699
88 1 0.254114 0.125 0.217912
89 1 0.283766 0.375 0.222526
108 1 0.0335218 0.375 0.222561
69 1 0.500609 0.125 0.223883
74 1 0.540686 4.18124e-17 0.177287
75 1 0.640502 0.25 0.1772
94 1 0.386207 0.25 0.177494
95 1 0.416447 0.5 0.177044
96 1 0.532687 0.375 0.221314
102 1 0.668967 0.5 0.177411
65 1 0.814266 0 0.177314
66 1 0.997414 0.125 0.219314
76 1 0.750509 0.125 0.226123
77 1 0.782095 0.375 0.222166
80 1 0.883393 0.25 0.178248
81 1 0.919185 0.5 0.177216
125 1 0.149946 0.875 0.223379
115 1 0.258682 0.75 0.176661
109 1 0.132138 0.625 0.222048
124 1 0.00511015 0.75 0.17791
120 1 0.516063 0.75 0.176864
117 1 0.39527 0.875 0.219367
116 1 0.38112 0.625 0.222194
97 1 0.629884 0.625 0.222981
121 1 0.646086 0.875 0.219836
105 1 0.892473 0.875 0.226569
104 1 0.881243 0.625 0.222558
103 1 0.762847 0.75 0.177787
67 1 0.322681 4.18124e-17 0.264961
110 1 0.187485 0.5 0.266786
82 1 0.0612803 0 0.264967
83 1 0.155394 0.25 0.264697
84 1 0.270474 0.125 0.311028
85 1 0.294895 0.375 0.310323
106 1 0.0457715 0.375 0.309602
64 1 0.0251207 0.125 0.312134
68 1 0.522922 0.125 0.314007
70 1 0.58774 0 0.268115
71 1 0.643921 0.25 0.267311
90 1 0.402191 0.25 0.266804
91 1 0.438486 0.5 0.26655
92 1 0.544865 0.375 0.311114
98 1 0.68749 0.5 0.26646
72 1 0.782057 0.125 0.302634
73 1 0.79739 0.375 0.310842
78 1 0.907926 0.25 0.264751
79 1 0.934807 0.5 0.26685
123 1 0.16678 0.875 0.308715
111 1 0.278427 0.75 0.267127
107 1 0.147988 0.625 0.312686
122 1 0.0321265 0.75 0.266683
118 1 0.520258 0.75 0.267111
113 1 0.412606 0.875 0.314166
112 1 0.39792 0.625 0.31267
93 1 0.645748 0.625 0.311521
119 1 0.670029 0.875 0.317242
101 1 0.919659 0.875 0.307484
100 1 0.896306 0.625 0.312143
99 1 0.7692 0.75 0.268045
176 2 0.247896 0.5 0.356409
170 2 0.0833706 0.375 0.399751
151 2 0.330753 0.375 0.400467
150 2 0.292068 0.125 0.399621
149 2 0.170182 0.25 0.355147
148 2 0.13258 0 0.356756
129 2 0.0402052 0.125 0.399914
158 2 0.581147 0.375 0.398659
157 2 0.495674 0.5 0.355967
156 2 0.413945 0.25 0.355683
132 2 0.556403 0.125 0.394998
137 2 0.686415 0.25 0.352168
143 2 0.995986 0.5 0.355897
142 2 0.928818 0.25 0.354851
139 2 0.831808 0.375 0.398697
138 2 0.798371 0.125 0.400332
128 2 0.857049 0 0.353729
187 2 0.19756 0.875 0.402641
177 2 0.285885 0.75 0.356913
171 2 0.152022 0.625 0.400214
186 2 0.0398935 0.75 0.354833
182 2 0.549031 0.75 0.357085
179 2 0.443723 0.875 0.397907
178 2 0.405955 0.625 0.40046
159 2 0.655398 0.625 0.400934
183 2 0.705939 0.875 0.398264
167 2 0.955676 0.875 0.399455
166 2 0.903427 0.625 0.400575
165 2 0.79908 0.75 0.355833
164 2 0.743023 0.5 0.35599
168 2 0.0963314 0.375 0.488254
146 2 0.312528 0.125 0.489337
145 2 0.194211 0.25 0.444622
144 2 0.10147 0 0.444463
127 2 0.0594074 0.125 0.489392
141 2 -0.00108779 0.5 0.444085
147 2 0.348226 0.375 0.487865
130 2 0.353133 4.18124e-17 0.444776
154 2 0.596313 0.375 0.488362
153 2 0.500705 0.5 0.444492
152 2 0.447206 0.25 0.442573
133 2 0.598578 8.36248e-17 0.442528
131 2 0.560845 0.125 0.48908
134 2 0.693739 0.25 0.443217
126 2 0.850902 0 0.443906
160 2 0.749391 0.5 0.444447
140 2 0.944431 0.25 0.444369
136 2 0.845422 0.375 0.488252
135 2 0.808444 0.125 0.488938
185 2 0.220156 0.875 0.489074
173 2 0.315887 0.75 0.444316
172 2 0.249291 0.5 0.444125
169 2 0.160989 0.625 0.488254
184 2 0.0617569 0.75 0.445855
180 2 0.56441 0.75 0.443691
175 2 0.470691 0.875 0.489269
174 2 0.409779 0.625 0.488434
155 2 0.658178 0.625 0.489095
181 2 0.715258 0.875 0.488847
163 2 0.965616 0.875 0.489331
162 2 0.90856 0.625 0.489054
161 2 0.813367 0.75 0.444799
232 2 0.104036 0.375 0.576919
212 2 0.32642 0.125 0.579328
211 2 0.210381 0.25 0.533103
210 2 0.116546 0 0.533358
191 2 0.0736926 0.125 0.57884
213 2 0.352546 0.375 0.577167
193 2 0.367485 4.18124e-17 0.533467
220 2 0.603069 0.375 0.577671
219 2 0.500046 0.5 0.532277
218 2 0.460483 0.25 0.53431
198 2 0.613544 8.36248e-17 0.535046
194 2 0.584764 0.125 0.581401
199 2 0.708301 0.25 0.533752
226 2 0.750419 0.5 0.532628
204 2 0.959013 0.25 0.532905
201 2 0.854082 0.375 0.577611
200 2 0.829367 0.125 0.578099
190 2 0.863346 0 0.533642
249 2 0.228234 0.875 0.576158
238 2 0.250953 0.5 0.532032
233 2 0.19801 0.625 0.577384
248 2 0.0894324 0.75 0.532177
205 2 0.000865935 0.5 0.532387
239 2 0.343132 0.75 0.533978
244 2 0.591456 0.75 0.535199
241 2 0.474685 0.875 0.580945
240 2 0.449648 0.625 0.577983
221 2 0.698177 0.625 0.577646
245 2 0.736103 0.875 0.580593
229 2 0.985336 0.875 0.577527
228 2 0.946623 0.625 0.57709
227 2 0.838468 0.75 0.533653
234 2 0.304553 0.5 0.622629
230 3 0.133333 0.375 0.665982
208 3 0.3 0.125 0.665982
207 2 0.213865 0.25 0.623102
206 2 0.17744 0 0.621829
189 3 0.05 0.125 0.665982
209 3 0.383333 0.375 0.665982
216 3 0.633333 0.375 0.665982
214 2 0.461414 0.25 0.623313
192 3 0.55 0.125 0.665982
195 2 0.721281 0.25 0.623441
188 2 0.910081 8.36248e-17 0.621897
222 2 0.803043 0.5 0.622634
202 2 0.9697 0.25 0.622985
197 3 0.883333 0.375 0.665982
196 3 0.8 0.125 0.665982
247 3 0.3 0.875 0.665982
231 3 0.216667 0.625 0.665982
246 2 0.0942665 0.75 0.62131
225 3 0.05 0.875 0.665982
203 2 0.0540479 0.5 0.622446
235 2 0.342929 0.75 0.621767
242 2 0.603819 0.75 0.622329
237 3 0.55 0.875 0.665982
236 3 0.466667 0.625 0.665982
215 2 0.5538 0.5 0.622734
217 3 0.716667 0.625 0.665982
243 3 0.8 0.875 0.665982
224 3 0.966667 0.625 0.665982
223 2 0.850809 0.75 0.622019
