ITEM: TIMESTEP
1168
ITEM: NUMBER OF ATOMS
249
ITEM: BOX BOUNDS pp pp pp
0.0000000000000000e+00 1.1265258452427979e+01
0.0000000000000000e+00 1.0620987524707861e+01
0.0000000000000000e+00 5.1792180038698433e+01
ITEM: ATOMS id type xs ys zs
6 3 0.25 0 0
24 3 0 0 0
25 3 0.0833333 0.25 0
26 1 0.211143 0.125 0.0452311
27 1 0.254795 0.375 0.0435522
52 3 0.166667 0.5 0
46 1 0.00436255 0.375 0.0436251
7 1 0.459578 0.125 0.0450555
12 3 0.5 0 0
13 3 0.583333 0.25 0
32 3 0.333333 0.25 0
33 3 0.416667 0.5 0
34 1 0.50401 0.375 0.0430778
2 3 0.75 0 0
3 1 0.967482 0.125 0.0438929
14 1 0.717901 0.125 0.0466785
15 1 0.752996 0.375 0.0429938
18 3 0.833333 0.25 0
19 3 0.916667 0.5 0
40 3 0.666667 0.5 0
47 1 0.0883127 0.625 0.043
53 3 0.25 0.75 0
62 3 0 0.75 0
63 1 0.129661 0.875 0.0444881
35 1 0.587779 0.625 0.0440048
54 1 0.336918 0.625 0.0434983
55 1 0.378415 0.875 0.0446005
58 3 0.5 0.75 0
59 1 0.622301 0.875 0.0425937
41 3 0.75 0.75 0
42 1 0.838875 0.625 0.0430331
43 1 0.872228 0.875 0.0455979
4 1 0.290007 2.09062e-17 0.0885737
20 1 0.0275945 0 0.0881893
21 1 0.122735 0.25 0.0898595
22 1 0.245535 0.125 0.135952
23 1 0.273279 0.375 0.132582
48 1 0.160272 0.5 0.0873246
44 1 0.0219776 0.375 0.132368
5 1 0.489903 0.125 0.132935
8 1 0.553783 0 0.0889809
9 1 0.615125 0.25 0.0881166
28 1 0.370892 0.25 0.0893742
29 1 0.412066 0.5 0.0871389
30 1 0.524253 0.375 0.133235
36 1 0.6614 0.5 0.08765
1 1 0.989503 0.125 0.135716
10 1 0.74082 0.125 0.127326
11 1 0.774163 0.375 0.13308
16 1 0.873662 0.25 0.0880861
17 1 0.908381 0.5 0.0873895
45 1 0.119463 0.625 0.132983
49 1 0.253362 0.75 0.0887868
61 1 0.136064 0.875 0.130827
60 1 0.00572916 0.75 0.0867951
31 1 0.621697 0.625 0.132569
50 1 0.372122 0.625 0.132321
51 1 0.388677 0.875 0.135443
56 1 0.49863 0.75 0.0891792
57 1 0.644237 0.875 0.135312
37 1 0.749085 0.75 0.0875962
38 1 0.870853 0.625 0.13277
39 1 0.888858 0.875 0.130458
114 1 0.175949 0.5 0.176986
86 1 0.0976658 0 0.177428
87 1 0.139143 0.25 0.177482
88 1 0.262028 0.125 0.217697
89 1 0.292687 0.375 0.222563
108 1 0.0428042 0.375 0.222331
66 1 0.00593355 0.125 0.219252
69 1 0.509527 0.125 0.223942
74 1 0.548045 4.18124e-17 0.177402
75 1 0.648114 0.25 0.177184
94 1 0.393032 0.25 0.177671
95 1 0.424676 0.5 0.176829
96 1 0.541422 0.375 0.221298
102 1 0.676901 0.5 0.17726
65 1 0.820998 0 0.177223
76 1 0.759168 0.125 0.226155
77 1 0.790847 0.375 0.222013
80 1 0.891036 0.25 0.178262
81 1 0.9273 0.5 0.177149
125 1 0.15989 0.875 0.222925
115 1 0.266835 0.75 0.176265
109 1 0.140071 0.625 0.221907
124 1 0.0122654 0.75 0.178027
120 1 0.523491 0.75 0.176667
117 1 0.404353 0.875 0.21919
116 1 0.388638 0.625 0.221975
97 1 0.637562 0.625 0.222939
121 1 0.655179 0.875 0.219854
105 1 0.90157 0.875 0.226707
104 1 0.888652 0.625 0.22261
103 1 0.770041 0.75 0.177838
67 1 0.333215 4.18124e-17 0.264579
110 1 0.200026 0.5 0.266498
82 1 0.0736306 0 0.264543
83 1 0.168435 0.25 0.264627
84 1 0.285863 0.125 0.310918
85 1 0.308693 0.375 0.310266
106 1 0.0593272 0.375 0.30941
64 1 0.0399499 0.125 0.311829
68 1 0.537899 0.125 0.314634
70 1 0.597364 0 0.268573
71 1 0.656047 0.25 0.267404
90 1 0.415139 0.25 0.267214
91 1 0.451372 0.5 0.266172
92 1 0.558877 0.375 0.311103
98 1 0.700589 0.5 0.266125
72 1 0.796079 0.125 0.302341
73 1 0.811255 0.375 0.310597
78 1 0.920965 0.25 0.264425
79 1 0.947818 0.5 0.266522
123 1 0.181387 0.875 0.308578
111 1 0.289502 0.75 0.26683
107 1 0.16151 0.625 0.312424
122 1 0.0434588 0.75 0.266357
118 1 0.531235 0.75 0.266505
113 1 0.4284 0.875 0.313237
112 1 0.411782 0.625 0.312308
93 1 0.659062 0.625 0.311254
119 1 0.685403 0.875 0.317469
101 1 0.934764 0.875 0.307362
100 1 0.9099 0.625 0.311893
99 1 0.779444 0.75 0.268168
176 2 0.263863 0.5 0.356342
170 2 0.0989708 0.375 0.399504
150 2 0.30895 0.125 0.399597
149 2 0.185535 0.25 0.354883
148 2 0.148764 0 0.356703
129 2 0.0574904 0.125 0.399887
143 2 0.0118907 0.5 0.355792
151 2 0.346067 0.375 0.400395
158 2 0.596795 0.375 0.398486
157 2 0.51148 0.5 0.355932
156 2 0.428957 0.25 0.355791
132 2 0.573648 0.125 0.394914
137 2 0.702204 0.25 0.352071
142 2 0.944379 0.25 0.354653
139 2 0.847359 0.375 0.398523
138 2 0.815694 0.125 0.400234
128 2 0.873125 0 0.353539
187 2 0.215222 0.875 0.402518
177 2 0.302105 0.75 0.356487
171 2 0.170071 0.625 0.400002
186 2 0.0553768 0.75 0.35463
182 2 0.563956 0.75 0.356841
179 2 0.461049 0.875 0.397905
178 2 0.423559 0.625 0.400414
159 2 0.673319 0.625 0.400764
183 2 0.723107 0.875 0.398138
167 2 0.973066 0.875 0.399319
166 2 0.921443 0.625 0.400457
165 2 0.814699 0.75 0.355631
164 2 0.75902 0.5 0.355843
168 2 0.116026 0.375 0.488183
145 2 0.212181 0.25 0.4446
144 2 0.120163 0 0.444318
127 2 0.0784969 0.125 0.489318
141 2 0.0187543 0.5 0.443928
146 2 0.331704 0.125 0.489306
147 2 0.368294 0.375 0.487671
130 2 0.371707 4.18124e-17 0.444691
154 2 0.616283 0.375 0.488191
153 2 0.520449 0.5 0.444302
152 2 0.465395 0.25 0.442468
133 2 0.61728 8.36248e-17 0.442501
131 2 0.580017 0.125 0.489076
134 2 0.71191 0.25 0.443159
126 2 0.869572 0 0.443779
160 2 0.769114 0.5 0.444315
140 2 0.96256 0.25 0.444247
136 2 0.865451 0.375 0.488078
135 2 0.827689 0.125 0.48889
185 2 0.239754 0.875 0.488993
172 2 0.26871 0.5 0.444106
169 2 0.179476 0.625 0.48817
184 2 0.0800418 0.75 0.445712
173 2 0.333907 0.75 0.444313
180 2 0.582536 0.75 0.443626
175 2 0.490431 0.875 0.489245
174 2 0.428542 0.625 0.488314
155 2 0.676878 0.625 0.489
181 2 0.734949 0.875 0.488779
163 2 0.985257 0.875 0.489224
162 2 0.927375 0.625 0.488874
161 2 0.831436 0.75 0.4447
232 2 0.125918 0.375 0.576853
211 2 0.231364 0.25 0.532987
210 2 0.137555 0 0.533148
191 2 0.095969 0.125 0.578764
212 2 0.348403 0.125 0.579175
213 2 0.374473 0.375 0.577106
193 2 0.388606 4.18124e-17 0.533332
220 2 0.62513 0.375 0.577589
219 2 0.519982 0.5 0.53214
218 2 0.481483 0.25 0.534186
198 2 0.634767 8.36248e-17 0.53494
194 2 0.606542 0.125 0.581238
199 2 0.729368 0.25 0.533638
226 2 0.770376 0.5 0.532423
204 2 0.97991 0.25 0.532877
201 2 0.875931 0.375 0.577561
200 2 0.851422 0.125 0.578083
190 2 0.884294 0 0.533527
249 2 0.249823 0.875 0.576067
238 2 0.270871 0.5 0.531876
233 2 0.220847 0.625 0.577378
248 2 0.110788 0.75 0.532168
205 2 0.0205919 0.5 0.532263
229 2 0.00693148 0.875 0.577257
239 2 0.364415 0.75 0.53391
244 2 0.612784 0.75 0.535192
241 2 0.496288 0.875 0.580855
240 2 0.472384 0.625 0.577947
221 2 0.721024 0.625 0.577574
245 2 0.758086 0.875 0.58056
228 2 0.969428 0.625 0.577132
227 2 0.859815 0.75 0.533543
234 2 0.328442 0.5 0.622665
230 3 0.158333 0.375 0.665982
208 3 0.325 0.125 0.665982
207 2 0.237025 0.25 0.62303
206 2 0.201703 0 0.621879
189 3 0.075 0.125 0.665982
209 3 0.408333 0.375 0.665982
216 3 0.658333 0.375 0.665982
214 2 0.484589 0.25 0.62323
192 3 0.575 0.125 0.665982
195 2 0.744573 0.25 0.623423
188 2 0.93431 8.36248e-17 0.62184
222 2 0.826988 0.5 0.622679
202 2 0.992978 0.25 0.622954
197 3 0.908333 0.375 0.665982
196 3 0.825 0.125 0.665982
247 3 0.325 0.875 0.665982
231 3 0.241667 0.625 0.665982
246 2 0.117288 0.75 0.621232
225 3 0.075 0.875 0.665982
203 2 0.0779408 0.5 0.622488
235 2 0.366027 0.75 0.621698
242 2 0.626741 0.75 0.622197
237 3 0.575 0.875 0.665982
236 3 0.491667 0.625 0.665982
215 2 0.577791 0.5 0.62275
217 3 0.741667 0.625 0.665982
243 3 0.825 0.875 0.665982
224 3 0.991667 0.625 0.665982
223 2 0.873807 0.75 0.621914
