ITEM: TIMESTEP
55
ITEM: NUMBER OF ATOMS
249
ITEM: BOX BOUNDS pp pp pp
0.0000000000000000e+00 1.1265258452427979e+01
0.0000000000000000e+00 1.0620987524707861e+01
0.0000000000000000e+00 5.1792180038698433e+01
ITEM: ATOMS id type xs ys zs
6 3 0.25 0 0
24 3 0 0 0
25 3 0.0833333 0.25 0
26 1 0.166667 0.125 0.0437442
27 1 0.25 0.375 0.0432171
46 1 0 0.375 0.0436235
52 3 0.166667 0.5 0
7 1 0.416667 0.125 0.0431918
12 3 0.5 0 0
13 3 0.583333 0.25 0
32 3 0.333333 0.25 0
33 3 0.416667 0.5 0
34 1 0.5 0.375 0.0439493
2 3 0.75 0 0
3 1 0.916667 0.125 0.0428449
14 1 0.666667 0.125 0.0452257
15 1 0.75 0.375 0.0433133
18 3 0.833333 0.25 0
19 3 0.916667 0.5 0
40 3 0.666667 0.5 0
47 1 0.0833333 0.625 0.043371
53 3 0.25 0.75 0
62 3 0 0.75 0
63 1 0.166667 0.875 0.0439695
35 1 0.583333 0.625 0.0432358
54 1 0.333333 0.625 0.0441898
55 1 0.416667 0.875 0.0433193
58 3 0.5 0.75 0
41 3 0.75 0.75 0
42 1 0.833333 0.625 0.0431052
43 1 0.916667 0.875 0.0428369
59 1 0.666667 0.875 0.0441111
4 1 0.25 2.09062e-17 0.0879167
20 1 0 0 0.0908868
21 1 0.0833333 0.25 0.0882898
22 1 0.166667 0.125 0.133479
23 1 0.25 0.375 0.131618
44 1 0 0.375 0.131585
48 1 0.166667 0.5 0.0875209
5 1 0.416667 0.125 0.129859
8 1 0.5 0 0.0867851
9 1 0.583333 0.25 0.0882567
28 1 0.333333 0.25 0.087365
29 1 0.416667 0.5 0.0896049
30 1 0.5 0.375 0.133982
1 1 0.916667 0.125 0.135169
10 1 0.666667 0.125 0.130778
11 1 0.75 0.375 0.133233
16 1 0.833333 0.25 0.0883124
17 1 0.916667 0.5 0.0876512
36 1 0.666667 0.5 0.0884795
45 1 0.0833333 0.625 0.132197
49 1 0.25 0.75 0.090254
60 1 0 0.75 0.0875096
61 1 0.166667 0.875 0.137276
31 1 0.583333 0.625 0.132581
50 1 0.333333 0.625 0.134434
51 1 0.416667 0.875 0.130364
56 1 0.5 0.75 0.0869413
37 1 0.75 0.75 0.0865878
38 1 0.833333 0.625 0.131471
39 1 0.916667 0.875 0.134703
57 1 0.666667 0.875 0.128714
114 1 0.166667 0.5 0.176831
108 1 0 0.375 0.220012
86 1 0 0 0.177839
87 1 0.0833333 0.25 0.175652
88 1 0.166667 0.125 0.217263
89 1 0.25 0.375 0.221158
69 1 0.416667 0.125 0.221363
74 1 0.5 4.18124e-17 0.17436
75 1 0.583333 0.25 0.178534
94 1 0.333333 0.25 0.175742
95 1 0.416667 0.5 0.178484
96 1 0.5 0.375 0.222054
65 1 0.75 0 0.177377
66 1 0.916667 0.125 0.221117
76 1 0.666667 0.125 0.223923
77 1 0.75 0.375 0.221992
80 1 0.833333 0.25 0.178197
81 1 0.916667 0.5 0.175466
102 1 0.666667 0.5 0.177038
125 1 0.166667 0.875 0.222165
124 1 0 0.75 0.178212
115 1 0.25 0.75 0.17973
109 1 0.0833333 0.625 0.222638
120 1 0.5 0.75 0.17751
117 1 0.416667 0.875 0.221935
116 1 0.333333 0.625 0.22371
97 1 0.583333 0.625 0.2217
121 1 0.666667 0.875 0.221196
105 1 0.916667 0.875 0.220941
104 1 0.833333 0.625 0.219473
103 1 0.75 0.75 0.175667
67 1 0.25 4.18124e-17 0.265079
110 1 0.166667 0.5 0.266749
82 1 0 0 0.268776
83 1 0.0833333 0.25 0.263521
84 1 0.166667 0.125 0.310646
85 1 0.25 0.375 0.310436
106 1 0 0.375 0.308538
68 1 0.416667 0.125 0.307654
70 1 0.5 0 0.264302
71 1 0.583333 0.25 0.265328
90 1 0.333333 0.25 0.264937
91 1 0.416667 0.5 0.266957
92 1 0.5 0.375 0.310124
64 1 0.916667 0.125 0.313819
72 1 0.666667 0.125 0.306455
73 1 0.75 0.375 0.312476
78 1 0.833333 0.25 0.266733
79 1 0.916667 0.5 0.264383
98 1 0.666667 0.5 0.267278
123 1 0.166667 0.875 0.313666
122 1 0 0.75 0.266782
111 1 0.25 0.75 0.268375
107 1 0.0833333 0.625 0.311699
118 1 0.5 0.75 0.266136
113 1 0.416667 0.875 0.313261
112 1 0.333333 0.625 0.311395
93 1 0.583333 0.625 0.311672
119 1 0.666667 0.875 0.304234
101 1 0.916667 0.875 0.313415
100 1 0.833333 0.625 0.308641
99 1 0.75 0.75 0.262789
176 2 0.166667 0.5 0.355908
170 2 0 0.375 0.398232
151 2 0.25 0.375 0.400997
150 2 0.166667 0.125 0.396917
149 2 0.0833333 0.25 0.353807
148 2 0 0 0.356831
158 2 0.5 0.375 0.399336
157 2 0.416667 0.5 0.354821
156 2 0.333333 0.25 0.355042
137 2 0.583333 0.25 0.35439
132 2 0.416667 0.125 0.402526
143 2 0.916667 0.5 0.353331
142 2 0.833333 0.25 0.357129
139 2 0.75 0.375 0.400886
138 2 0.666667 0.125 0.401475
129 2 0.916667 0.125 0.400902
128 2 0.75 0 0.35523
187 2 0.166667 0.875 0.39937
186 2 0 0.75 0.356993
177 2 0.25 0.75 0.35644
171 2 0.0833333 0.625 0.401032
182 2 0.5 0.75 0.358155
179 2 0.416667 0.875 0.401824
178 2 0.333333 0.625 0.399954
159 2 0.583333 0.625 0.401576
183 2 0.666667 0.875 0.401459
167 2 0.916667 0.875 0.40093
166 2 0.833333 0.625 0.398228
165 2 0.75 0.75 0.352864
164 2 0.666667 0.5 0.356614
168 2 0 0.375 0.487963
147 2 0.25 0.375 0.490514
146 2 0.166667 0.125 0.488636
145 2 0.0833333 0.25 0.442786
144 2 0 0 0.444951
130 2 0.25 4.18124e-17 0.444214
154 2 0.5 0.375 0.488847
153 2 0.416667 0.5 0.444181
152 2 0.333333 0.25 0.445918
134 2 0.583333 0.25 0.444465
133 2 0.5 8.36248e-17 0.446838
131 2 0.416667 0.125 0.490393
126 2 0.75 0 0.444895
160 2 0.666667 0.5 0.445448
141 2 0.916667 0.5 0.443118
140 2 0.833333 0.25 0.44543
136 2 0.75 0.375 0.489908
135 2 0.666667 0.125 0.489168
127 2 0.916667 0.125 0.489941
185 2 0.166667 0.875 0.488578
184 2 0 0.75 0.445338
173 2 0.25 0.75 0.443704
172 2 0.166667 0.5 0.445907
169 2 0.0833333 0.625 0.490006
180 2 0.5 0.75 0.445366
175 2 0.416667 0.875 0.490377
174 2 0.333333 0.625 0.48866
155 2 0.583333 0.625 0.489728
181 2 0.666667 0.875 0.4888
163 2 0.916667 0.875 0.489917
162 2 0.833333 0.625 0.488338
161 2 0.75 0.75 0.4444
232 2 0 0.375 0.577878
213 2 0.25 0.375 0.578755
212 2 0.166667 0.125 0.579854
211 2 0.0833333 0.25 0.533591
210 2 0 0 0.535254
193 2 0.25 4.18124e-17 0.533778
220 2 0.5 0.375 0.577925
219 2 0.416667 0.5 0.533165
218 2 0.333333 0.25 0.535546
199 2 0.583333 0.25 0.533567
198 2 0.5 8.36248e-17 0.53398
194 2 0.416667 0.125 0.580257
226 2 0.666667 0.5 0.534214
204 2 0.833333 0.25 0.534273
201 2 0.75 0.375 0.578664
200 2 0.666667 0.125 0.576742
191 2 0.916667 0.125 0.578859
190 2 0.75 0 0.533126
249 2 0.166667 0.875 0.579736
248 2 0 0.75 0.534188
239 2 0.25 0.75 0.534024
238 2 0.166667 0.5 0.534238
233 2 0.0833333 0.625 0.578346
244 2 0.5 0.75 0.534261
241 2 0.416667 0.875 0.578287
240 2 0.333333 0.625 0.577895
221 2 0.583333 0.625 0.57828
245 2 0.666667 0.875 0.576435
229 2 0.916667 0.875 0.578646
228 2 0.833333 0.625 0.577354
227 2 0.75 0.75 0.532721
205 2 0.916667 0.5 0.53284
234 2 0.166667 0.5 0.622713
230 3 0 0.375 0.665982
209 3 0.25 0.375 0.665982
208 3 0.166667 0.125 0.665982
207 2 0.0833333 0.25 0.622945
206 2 0 0 0.622975
216 3 0.5 0.375 0.665982
214 2 0.333333 0.25 0.623358
195 2 0.583333 0.25 0.622584
192 3 0.416667 0.125 0.665982
188 2 0.75 8.36248e-17 0.621848
222 2 0.666667 0.5 0.622777
202 2 0.833333 0.25 0.622828
197 3 0.75 0.375 0.665982
196 3 0.666667 0.125 0.665982
189 3 0.916667 0.125 0.665982
247 3 0.166667 0.875 0.665982
246 2 0 0.75 0.62267
235 2 0.25 0.75 0.622761
231 3 0.0833333 0.625 0.665982
242 2 0.5 0.75 0.62247
237 3 0.416667 0.875 0.665982
236 3 0.333333 0.625 0.665982
217 3 0.583333 0.625 0.665982
215 2 0.416667 0.5 0.622521
243 3 0.666667 0.875 0.665982
225 3 0.916667 0.875 0.665982
224 3 0.833333 0.625 0.665982
223 2 0.75 0.75 0.621993
203 2 0.916667 0.5 0.622402
