ITEM: TIMESTEP
388
ITEM: NUMBER OF ATOMS
249
ITEM: BOX BOUNDS pp pp pp
0.0000000000000000e+00 1.1265258452427979e+01
0.0000000000000000e+00 1.0620987524707861e+01
0.0000000000000000e+00 5.1792180038698433e+01
ITEM: ATOMS id type xs ys zs
6 3 0.25 0 0
24 3 0 0 0
25 3 0.0833333 0.25 0
26 1 0.205558 0.125 0.0449355
27 1 0.242686 0.375 0.0436304
52 3 0.166667 0.5 0
7 1 0.451747 0.125 0.0447996
12 3 0.5 0 0
13 3 0.583333 0.25 0
32 3 0.333333 0.25 0
33 3 0.416667 0.5 0
34 1 0.492109 0.375 0.0432037
46 1 0.991992 0.375 0.043854
2 3 0.75 0 0
3 1 0.962277 0.125 0.0438502
14 1 0.712534 0.125 0.0465277
15 1 0.741381 0.375 0.0430417
18 3 0.833333 0.25 0
19 3 0.916667 0.5 0
40 3 0.666667 0.5 0
47 1 0.085964 0.625 0.0427348
53 3 0.25 0.75 0
62 3 0 0.75 0
63 1 0.122203 0.875 0.04476
35 1 0.584454 0.625 0.0434452
54 1 0.334638 0.625 0.0431598
55 1 0.371355 0.875 0.0447557
58 3 0.5 0.75 0
59 1 0.614858 0.875 0.0422088
41 3 0.75 0.75 0
42 1 0.836124 0.625 0.0425849
43 1 0.865153 0.875 0.0453008
4 1 0.27764 2.09062e-17 0.089453
20 1 0.00952072 0 0.0889835
21 1 0.1063 0.25 0.0903039
22 1 0.218368 0.125 0.13711
23 1 0.247124 0.375 0.132974
48 1 0.139246 0.5 0.0876585
5 1 0.46367 0.125 0.131031
8 1 0.547956 0 0.0876028
9 1 0.598756 0.25 0.0878451
28 1 0.353019 0.25 0.0896053
29 1 0.390406 0.5 0.0878003
30 1 0.498126 0.375 0.133757
36 1 0.638995 0.5 0.0881219
44 1 0.99607 0.375 0.132365
1 1 0.96274 0.125 0.136206
10 1 0.715425 0.125 0.128527
11 1 0.7473 0.375 0.132976
16 1 0.855123 0.25 0.0886609
17 1 0.886962 0.5 0.0875788
45 1 0.0959086 0.625 0.132856
49 1 0.232657 0.75 0.0885741
61 1 0.109279 0.875 0.130988
31 1 0.597486 0.625 0.132768
50 1 0.347456 0.625 0.132688
51 1 0.358477 0.875 0.136149
56 1 0.477681 0.75 0.0891486
57 1 0.613232 0.875 0.13549
60 1 0.985984 0.75 0.0867353
37 1 0.72817 0.75 0.0875908
38 1 0.847521 0.625 0.132649
39 1 0.858447 0.875 0.129966
114 1 0.139057 0.5 0.177478
86 1 0.0641776 0 0.177884
87 1 0.103695 0.25 0.177899
88 1 0.221529 0.125 0.218459
89 1 0.251475 0.375 0.222427
69 1 0.467655 0.125 0.223958
74 1 0.513792 4.18124e-17 0.177556
75 1 0.612693 0.25 0.177503
94 1 0.359717 0.25 0.177542
95 1 0.388298 0.5 0.177633
96 1 0.500792 0.375 0.221481
102 1 0.641288 0.5 0.177904
108 1 0.000617045 0.375 0.222908
65 1 0.787695 0 0.177571
66 1 0.964783 0.125 0.219033
76 1 0.719569 0.125 0.22583
77 1 0.750588 0.375 0.222564
80 1 0.855236 0.25 0.177826
81 1 0.891046 0.5 0.177579
125 1 0.116753 0.875 0.224663
115 1 0.231169 0.75 0.177467
109 1 0.101448 0.625 0.222336
120 1 0.489036 0.75 0.177431
117 1 0.362679 0.875 0.219715
116 1 0.351583 0.625 0.222812
97 1 0.600031 0.625 0.223216
121 1 0.614006 0.875 0.219993
124 1 0.978601 0.75 0.178109
105 1 0.860388 0.875 0.226633
104 1 0.851396 0.625 0.222723
103 1 0.736143 0.75 0.17799
67 1 0.294661 4.18124e-17 0.266584
110 1 0.14577 0.5 0.267516
82 1 0.0238974 0 0.266242
83 1 0.110147 0.25 0.264766
84 1 0.215412 0.125 0.31082
85 1 0.246474 0.375 0.310489
68 1 0.470327 0.125 0.311184
70 1 0.5622 0 0.266712
71 1 0.600882 0.25 0.266741
90 1 0.355629 0.25 0.265689
91 1 0.396192 0.5 0.26754
92 1 0.495754 0.375 0.311
98 1 0.644994 0.5 0.267411
106 1 0.998853 0.375 0.31016
64 1 0.972803 0.125 0.313169
72 1 0.733602 0.125 0.303738
73 1 0.748373 0.375 0.311274
78 1 0.863236 0.25 0.265659
79 1 0.892617 0.5 0.267741
123 1 0.118304 0.875 0.309087
111 1 0.238402 0.75 0.267923
107 1 0.09943 0.625 0.313314
118 1 0.480545 0.75 0.268561
113 1 0.360574 0.875 0.316562
112 1 0.348652 0.625 0.313358
93 1 0.597798 0.625 0.312128
119 1 0.617088 0.875 0.316816
122 1 0.991862 0.75 0.267587
101 1 0.868137 0.875 0.307485
100 1 0.848305 0.625 0.312699
99 1 0.730794 0.75 0.268092
176 2 0.191771 0.5 0.356523
170 2 0.0226815 0.375 0.400476
151 2 0.271122 0.375 0.400718
150 2 0.230001 0.125 0.399683
149 2 0.113639 0.25 0.356047
148 2 0.0772034 0 0.356439
158 2 0.521104 0.375 0.39917
157 2 0.440314 0.5 0.35599
156 2 0.358229 0.25 0.355144
137 2 0.627828 0.25 0.352376
132 2 0.49238 0.125 0.395423
143 2 0.939718 0.5 0.356183
142 2 0.87092 0.25 0.355107
139 2 0.771988 0.375 0.399219
138 2 0.734311 0.125 0.4005
129 2 0.976644 0.125 0.399417
128 2 0.802526 0 0.354589
187 2 0.132195 0.875 0.402471
177 2 0.230663 0.75 0.357737
171 2 0.0886717 0.625 0.400665
182 2 0.495095 0.75 0.357959
179 2 0.379154 0.875 0.397845
178 2 0.342961 0.625 0.400643
159 2 0.592313 0.625 0.401348
183 2 0.642061 0.875 0.398217
186 2 0.985387 0.75 0.355426
167 2 0.890675 0.875 0.400208
166 2 0.840098 0.625 0.400966
165 2 0.744312 0.75 0.35629
164 2 0.687037 0.5 0.356279
168 2 0.0228029 0.375 0.488728
147 2 0.27365 0.375 0.488587
146 2 0.239786 0.125 0.489145
145 2 0.126426 0.25 0.444497
144 2 0.0331444 0 0.444543
130 2 0.284663 4.18124e-17 0.444864
154 2 0.522101 0.375 0.489
153 2 0.430814 0.5 0.445099
152 2 0.379 0.25 0.442958
134 2 0.625566 0.25 0.443429
133 2 0.530017 8.36248e-17 0.442494
131 2 0.488327 0.125 0.488928
126 2 0.78186 0 0.444164
160 2 0.67974 0.5 0.44492
141 2 0.929189 0.5 0.444767
140 2 0.87648 0.25 0.44464
136 2 0.771048 0.375 0.488938
135 2 0.735792 0.125 0.48892
127 2 0.987251 0.125 0.48927
185 2 0.14561 0.875 0.489178
173 2 0.248031 0.75 0.444246
172 2 0.180244 0.5 0.444607
169 2 0.0937767 0.625 0.48897
180 2 0.496927 0.75 0.443592
175 2 0.395828 0.875 0.489046
174 2 0.342378 0.625 0.488844
155 2 0.590553 0.625 0.489275
181 2 0.640713 0.875 0.488904
184 2 0.994558 0.75 0.446164
163 2 0.891868 0.875 0.489292
162 2 0.840226 0.625 0.489438
161 2 0.74574 0.75 0.445025
232 2 0.0200803 0.375 0.577229
213 2 0.268278 0.375 0.577481
212 2 0.239818 0.125 0.579638
211 2 0.129818 0.25 0.533387
210 2 0.0366502 0 0.533829
193 2 0.287039 4.18124e-17 0.533677
220 2 0.518015 0.375 0.577983
219 2 0.428429 0.5 0.532892
218 2 0.379935 0.25 0.534663
199 2 0.627637 0.25 0.534145
198 2 0.532949 8.36248e-17 0.535155
194 2 0.499185 0.125 0.581807
226 2 0.678403 0.5 0.533364
204 2 0.878816 0.25 0.532952
201 2 0.769999 0.375 0.577909
200 2 0.742721 0.125 0.577834
191 2 0.986222 0.125 0.578705
190 2 0.784108 0 0.533801
249 2 0.143309 0.875 0.576371
239 2 0.257625 0.75 0.533856
238 2 0.179798 0.5 0.532896
233 2 0.105957 0.625 0.577225
248 2 0.00404526 0.75 0.532386
244 2 0.505886 0.75 0.534749
241 2 0.390025 0.875 0.580715
240 2 0.357951 0.625 0.577852
221 2 0.606107 0.625 0.577539
245 2 0.650038 0.875 0.580161
229 2 0.900166 0.875 0.578281
228 2 0.854403 0.625 0.576888
227 2 0.753459 0.75 0.533553
205 2 0.929581 0.5 0.533087
234 2 0.20978 0.5 0.622417
230 3 0.0333333 0.375 0.665982
209 3 0.283333 0.375 0.665982
208 3 0.2 0.125 0.665982
207 2 0.121344 0.25 0.62321
206 2 0.0814904 0 0.621609
216 3 0.533333 0.375 0.665982
214 2 0.368826 0.25 0.623485
195 2 0.628797 0.25 0.623353
192 3 0.45 0.125 0.665982
188 2 0.813894 8.36248e-17 0.62203
222 2 0.707942 0.5 0.622407
202 2 0.877143 0.25 0.622922
197 3 0.783333 0.375 0.665982
196 3 0.7 0.125 0.665982
189 3 0.95 0.125 0.665982
247 3 0.2 0.875 0.665982
235 2 0.250634 0.75 0.621981
231 3 0.116667 0.625 0.665982
246 2 0.00217386 0.75 0.621567
242 2 0.512368 0.75 0.622716
237 3 0.45 0.875 0.665982
236 3 0.366667 0.625 0.665982
217 3 0.616667 0.625 0.665982
215 2 0.458728 0.5 0.622571
243 3 0.7 0.875 0.665982
225 3 0.95 0.875 0.665982
224 3 0.866667 0.625 0.665982
223 2 0.758834 0.75 0.622349
203 2 0.959218 0.5 0.622207
