ITEM: TIMESTEP
843
ITEM: NUMBER OF ATOMS
249
ITEM: BOX BOUNDS pp pp pp
0.0000000000000000e+00 1.1265258452427979e+01
0.0000000000000000e+00 1.0620987524707861e+01
0.0000000000000000e+00 5.1792180038698433e+01
ITEM: ATOMS id type xs ys zs
6 3 0.25 0 0
24 3 0 0 0
25 3 0.0833333 0.25 0
26 1 0.208972 0.125 0.0452503
27 1 0.251122 0.375 0.0435053
52 3 0.166667 0.5 0
7 1 0.457194 0.125 0.0450811
12 3 0.5 0 0
13 3 0.583333 0.25 0
32 3 0.333333 0.25 0
33 3 0.416667 0.5 0
34 1 0.500228 0.375 0.0430699
46 1 1.00069 0.375 0.0436379
2 3 0.75 0 0
3 1 0.965436 0.125 0.0438497
14 1 0.716853 0.125 0.0463782
15 1 0.749306 0.375 0.0429663
18 3 0.833333 0.25 0
19 3 0.916667 0.5 0
40 3 0.666667 0.5 0
47 1 0.0890981 0.625 0.0429223
53 3 0.25 0.75 0
62 3 0 0.75 0
63 1 0.127255 0.875 0.0445905
35 1 0.588037 0.625 0.0438302
54 1 0.337707 0.625 0.0434222
55 1 0.375455 0.875 0.044559
58 3 0.5 0.75 0
59 1 0.619052 0.875 0.0423006
41 3 0.75 0.75 0
42 1 0.839444 0.625 0.0428377
43 1 0.869359 0.875 0.0456955
4 1 0.290514 2.09062e-17 0.0890055
20 1 0.0244542 0 0.0882992
21 1 0.117483 0.25 0.0899881
22 1 0.235691 0.125 0.136446
23 1 0.264481 0.375 0.132771
48 1 0.153303 0.5 0.0874298
44 1 0.0134353 0.375 0.132382
5 1 0.480783 0.125 0.131608
8 1 0.558334 0 0.0881376
9 1 0.610089 0.25 0.0879217
28 1 0.364548 0.25 0.0894328
29 1 0.404824 0.5 0.0874022
30 1 0.515342 0.375 0.133473
36 1 0.653545 0.5 0.087863
1 1 0.980831 0.125 0.135976
10 1 0.733414 0.125 0.127792
11 1 0.765186 0.375 0.132983
16 1 0.867743 0.25 0.0882389
17 1 0.901016 0.5 0.0874075
45 1 0.11232 0.625 0.132885
49 1 0.245921 0.75 0.0886889
61 1 0.126841 0.875 0.130774
31 1 0.614306 0.625 0.132662
50 1 0.364397 0.625 0.13248
51 1 0.376897 0.875 0.136072
56 1 0.490881 0.75 0.0892595
57 1 0.632794 0.875 0.135339
60 1 0.999125 0.75 0.0866545
37 1 0.741609 0.75 0.0875417
38 1 0.863863 0.625 0.132637
39 1 0.877847 0.875 0.129939
114 1 0.163091 0.5 0.177155
86 1 0.0863716 0 0.177801
87 1 0.127019 0.25 0.177841
88 1 0.248278 0.125 0.218403
89 1 0.278733 0.375 0.222508
108 1 0.0286016 0.375 0.222653
69 1 0.495297 0.125 0.223809
74 1 0.535899 4.18124e-17 0.177322
75 1 0.6361 0.25 0.177121
94 1 0.381689 0.25 0.177556
95 1 0.411991 0.5 0.177187
96 1 0.527853 0.375 0.221249
102 1 0.664594 0.5 0.177514
65 1 0.809671 0 0.177294
66 1 0.991597 0.125 0.219353
76 1 0.745764 0.125 0.225706
77 1 0.777204 0.375 0.222236
80 1 0.879058 0.25 0.178185
81 1 0.914767 0.5 0.177226
125 1 0.144976 0.875 0.223859
115 1 0.254401 0.75 0.176903
109 1 0.127917 0.625 0.222088
120 1 0.511797 0.75 0.176947
117 1 0.39003 0.875 0.219681
116 1 0.377289 0.625 0.222426
97 1 0.625715 0.625 0.223046
121 1 0.640494 0.875 0.219846
124 1 1.00118 0.75 0.17793
105 1 0.887262 0.875 0.226561
104 1 0.877491 0.625 0.222494
103 1 0.758792 0.75 0.177808
67 1 0.321065 4.18124e-17 0.265886
110 1 0.179831 0.5 0.266968
82 1 0.0554 0 0.265333
83 1 0.14569 0.25 0.26498
84 1 0.257949 0.125 0.311354
85 1 0.285502 0.375 0.310265
106 1 0.0363818 0.375 0.309788
64 1 0.0137346 0.125 0.312505
68 1 0.511586 0.125 0.312712
70 1 0.588211 0 0.267175
71 1 0.635467 0.25 0.266995
90 1 0.392018 0.25 0.266232
91 1 0.430659 0.5 0.266857
92 1 0.534982 0.375 0.310922
98 1 0.679444 0.5 0.266754
72 1 0.772746 0.125 0.302748
73 1 0.787845 0.375 0.310925
78 1 0.898632 0.25 0.264908
79 1 0.926975 0.5 0.267045
123 1 0.15604 0.875 0.308835
111 1 0.27105 0.75 0.267508
107 1 0.138767 0.625 0.312869
122 1 0.0249276 0.75 0.266876
118 1 0.512815 0.75 0.268015
113 1 0.399699 0.875 0.315793
112 1 0.388285 0.625 0.313011
93 1 0.637041 0.625 0.311753
119 1 0.657673 0.875 0.316793
101 1 0.907769 0.875 0.307225
100 1 0.887127 0.625 0.312238
99 1 0.76266 0.75 0.267855
176 2 0.236947 0.5 0.356396
170 2 0.0719828 0.375 0.399974
151 2 0.319756 0.375 0.400376
150 2 0.280865 0.125 0.399334
149 2 0.159581 0.25 0.355372
148 2 0.11912 0 0.356897
129 2 0.0285055 0.125 0.400114
158 2 0.569744 0.375 0.398728
157 2 0.484981 0.5 0.355907
156 2 0.404029 0.25 0.355342
132 2 0.544893 0.125 0.395012
137 2 0.675324 0.25 0.35201
143 2 0.98489 0.5 0.356012
142 2 0.918081 0.25 0.355114
139 2 0.820331 0.375 0.398891
138 2 0.786794 0.125 0.400292
128 2 0.843968 0 0.353686
187 2 0.185428 0.875 0.402787
177 2 0.273697 0.75 0.357471
171 2 0.139481 0.625 0.400366
186 2 0.0288545 0.75 0.354776
182 2 0.539022 0.75 0.357299
179 2 0.431939 0.875 0.39783
178 2 0.394145 0.625 0.400399
159 2 0.643387 0.625 0.401045
183 2 0.694057 0.875 0.398336
167 2 0.943693 0.875 0.399466
166 2 0.891201 0.625 0.400585
165 2 0.788195 0.75 0.355883
164 2 0.732171 0.5 0.356109
168 2 0.0831127 0.375 0.488221
146 2 0.29945 0.125 0.489333
145 2 0.181949 0.25 0.444588
144 2 0.0883984 0 0.444638
127 2 0.0463447 0.125 0.489449
147 2 0.33465 0.375 0.487966
130 2 0.340239 4.18124e-17 0.444747
154 2 0.582748 0.375 0.488446
153 2 0.487811 0.5 0.444601
152 2 0.434419 0.25 0.442584
133 2 0.585577 8.36248e-17 0.4425
131 2 0.547658 0.125 0.48905
134 2 0.680992 0.25 0.443261
126 2 0.837881 0 0.44394
160 2 0.736544 0.5 0.444572
141 2 0.985832 0.5 0.444213
140 2 0.931577 0.25 0.444499
136 2 0.831795 0.375 0.488388
135 2 0.795218 0.125 0.488967
185 2 0.206892 0.875 0.489078
173 2 0.303538 0.75 0.444228
172 2 0.236828 0.5 0.444079
169 2 0.148602 0.625 0.488244
184 2 0.0489803 0.75 0.445956
180 2 0.551828 0.75 0.443699
175 2 0.457155 0.875 0.489242
174 2 0.397119 0.625 0.488511
155 2 0.645548 0.625 0.489162
181 2 0.701769 0.875 0.48885
163 2 0.952045 0.875 0.489421
162 2 0.895822 0.625 0.489211
161 2 0.800972 0.75 0.44484
232 2 0.0892711 0.375 0.576963
212 2 0.311559 0.125 0.579405
211 2 0.196185 0.25 0.533162
210 2 0.102376 0 0.533466
191 2 0.0586618 0.125 0.57886
213 2 0.337727 0.375 0.577192
193 2 0.353187 4.18124e-17 0.533532
220 2 0.588168 0.375 0.577729
219 2 0.486507 0.5 0.532357
218 2 0.446269 0.25 0.534372
198 2 0.59918 8.36248e-17 0.535074
194 2 0.570018 0.125 0.581471
199 2 0.693993 0.25 0.533809
226 2 0.736824 0.5 0.532774
204 2 0.944911 0.25 0.532901
201 2 0.839358 0.375 0.577622
200 2 0.814459 0.125 0.578092
190 2 0.849132 0 0.533701
249 2 0.213551 0.875 0.576202
239 2 0.328615 0.75 0.534009
238 2 0.237393 0.5 0.532109
233 2 0.182645 0.625 0.577381
248 2 0.074978 0.75 0.532128
244 2 0.576893 0.75 0.535179
241 2 0.460041 0.875 0.580974
240 2 0.434353 0.625 0.577999
221 2 0.682787 0.625 0.577702
245 2 0.721191 0.875 0.580604
229 2 0.970676 0.875 0.577649
228 2 0.931333 0.625 0.577034
227 2 0.823846 0.75 0.533729
205 2 0.987587 0.5 0.53244
234 2 0.288592 0.5 0.622603
230 3 0.116667 0.375 0.665982
208 3 0.283333 0.125 0.665982
207 2 0.198238 0.25 0.623135
206 2 0.161283 0 0.621799
189 3 0.0333333 0.125 0.665982
209 3 0.366667 0.375 0.665982
216 3 0.616667 0.375 0.665982
214 2 0.445776 0.25 0.623353
192 3 0.533333 0.125 0.665982
195 2 0.705621 0.25 0.623442
188 2 0.893975 8.36248e-17 0.621915
222 2 0.787086 0.5 0.622593
202 2 0.954021 0.25 0.622995
197 3 0.866667 0.375 0.665982
196 3 0.783333 0.125 0.665982
247 3 0.283333 0.875 0.665982
235 2 0.327408 0.75 0.621806
231 3 0.2 0.625 0.665982
246 2 0.0787758 0.75 0.621355
225 3 0.0333333 0.875 0.665982
203 2 0.0380782 0.5 0.622421
242 2 0.588392 0.75 0.622413
237 3 0.533333 0.875 0.665982
236 3 0.45 0.625 0.665982
215 2 0.537779 0.5 0.62273
217 3 0.7 0.625 0.665982
243 3 0.783333 0.875 0.665982
224 3 0.95 0.625 0.665982
223 2 0.835367 0.75 0.622074
