ITEM: TIMESTEP
238
ITEM: NUMBER OF ATOMS
249
ITEM: BOX BOUNDS pp pp pp
0.0000000000000000e+00 1.1265258452427979e+01
0.0000000000000000e+00 1.0620987524707861e+01
0.0000000000000000e+00 5.1792180038698433e+01
ITEM: ATOMS id type xs ys zs
6 3 0.25 0 0
24 3 0 0 0
25 3 0.0833333 0.25 0
26 1 0.205185 0.125 0.0448934
27 1 0.241204 0.375 0.0436959
52 3 0.166667 0.5 0
7 1 0.450991 0.125 0.0447381
12 3 0.5 0 0
13 3 0.583333 0.25 0
32 3 0.333333 0.25 0
33 3 0.416667 0.5 0
34 1 0.490699 0.375 0.0432634
46 1 0.990467 0.375 0.0439332
2 3 0.75 0 0
3 1 0.961952 0.125 0.0438625
14 1 0.711811 0.125 0.0465875
15 1 0.74 0.375 0.0430867
18 3 0.833333 0.25 0
19 3 0.916667 0.5 0
40 3 0.666667 0.5 0
47 1 0.0854218 0.625 0.0427205
53 3 0.25 0.75 0
62 3 0 0.75 0
63 1 0.121343 0.875 0.0447889
35 1 0.583887 0.625 0.0434103
54 1 0.334131 0.625 0.0431348
55 1 0.370618 0.875 0.0447927
58 3 0.5 0.75 0
59 1 0.614133 0.875 0.0422146
41 3 0.75 0.75 0
42 1 0.835586 0.625 0.0425745
43 1 0.864484 0.875 0.045231
4 1 0.275112 2.09062e-17 0.0895659
20 1 0.00684475 0 0.0891347
21 1 0.104544 0.25 0.0904073
22 1 0.215661 0.125 0.137268
23 1 0.244422 0.375 0.13306
48 1 0.136917 0.5 0.0877335
5 1 0.460992 0.125 0.131069
8 1 0.545757 0 0.0875896
9 1 0.596934 0.25 0.087883
28 1 0.351289 0.25 0.089663
29 1 0.388014 0.5 0.0879045
30 1 0.495426 0.375 0.133851
36 1 0.636622 0.5 0.0882022
44 1 0.993351 0.375 0.132433
1 1 0.959875 0.125 0.136309
10 1 0.712474 0.125 0.128695
11 1 0.744501 0.375 0.133061
16 1 0.853105 0.25 0.0887742
17 1 0.884658 0.5 0.0876574
45 1 0.0934798 0.625 0.132925
49 1 0.230638 0.75 0.0885877
61 1 0.106568 0.875 0.131109
31 1 0.59495 0.625 0.132858
50 1 0.344937 0.625 0.132794
51 1 0.355782 0.875 0.136162
56 1 0.475677 0.75 0.0891595
57 1 0.61026 0.875 0.13559
60 1 0.983983 0.75 0.0868152
37 1 0.726141 0.75 0.0876445
38 1 0.845057 0.625 0.132735
39 1 0.85555 0.875 0.130104
114 1 0.13505 0.5 0.177636
86 1 0.0606855 0 0.177996
87 1 0.100196 0.25 0.177973
88 1 0.217292 0.125 0.21859
89 1 0.247109 0.375 0.222542
69 1 0.463344 0.125 0.224136
74 1 0.510146 4.18124e-17 0.177704
75 1 0.60923 0.25 0.177682
94 1 0.356338 0.25 0.177657
95 1 0.384374 0.5 0.177801
96 1 0.496469 0.375 0.221678
102 1 0.637377 0.5 0.178063
108 1 0.996145 0.375 0.223058
65 1 0.78412 0 0.177724
66 1 0.960653 0.125 0.21911
76 1 0.715487 0.125 0.226035
77 1 0.746391 0.375 0.222733
80 1 0.851766 0.25 0.177863
81 1 0.887095 0.5 0.177741
125 1 0.11226 0.875 0.224929
115 1 0.227568 0.75 0.177663
109 1 0.0973524 0.625 0.222524
120 1 0.485463 0.75 0.177609
117 1 0.358404 0.875 0.219857
116 1 0.347613 0.625 0.222998
97 1 0.596076 0.625 0.223368
121 1 0.609853 0.875 0.22015
124 1 0.975052 0.75 0.178252
105 1 0.856231 0.875 0.22677
104 1 0.847351 0.625 0.222902
103 1 0.732535 0.75 0.178129
67 1 0.290123 4.18124e-17 0.266743
110 1 0.140263 0.5 0.267764
82 1 0.0188997 0 0.266569
83 1 0.104964 0.25 0.264852
84 1 0.208766 0.125 0.310804
85 1 0.240316 0.375 0.310735
68 1 0.463966 0.125 0.311148
70 1 0.557771 0 0.266874
71 1 0.595826 0.25 0.266867
90 1 0.350358 0.25 0.265794
91 1 0.390597 0.5 0.2678
92 1 0.489638 0.375 0.311201
98 1 0.639418 0.5 0.26766
106 1 0.993003 0.375 0.310418
64 1 0.966443 0.125 0.313496
72 1 0.72736 0.125 0.30415
73 1 0.742141 0.375 0.311518
78 1 0.858072 0.25 0.265972
79 1 0.887071 0.5 0.268003
123 1 0.112511 0.875 0.309347
111 1 0.233288 0.75 0.268132
107 1 0.0934491 0.625 0.313558
118 1 0.475565 0.75 0.268749
113 1 0.354744 0.875 0.316711
112 1 0.342677 0.625 0.313573
93 1 0.591845 0.625 0.312371
119 1 0.611171 0.875 0.31707
122 1 0.986732 0.75 0.267868
101 1 0.862176 0.875 0.307753
100 1 0.842415 0.625 0.312955
99 1 0.725832 0.75 0.268299
176 2 0.185242 0.5 0.356755
170 2 0.0139314 0.375 0.400816
151 2 0.262394 0.375 0.40108
150 2 0.22186 0.125 0.40009
149 2 0.105883 0.25 0.356387
148 2 0.0712009 0 0.356569
158 2 0.512553 0.375 0.399519
157 2 0.43391 0.5 0.356205
156 2 0.350499 0.25 0.355351
137 2 0.619827 0.25 0.352736
132 2 0.483949 0.125 0.395896
143 2 0.933167 0.5 0.356419
142 2 0.86299 0.25 0.355292
139 2 0.763616 0.375 0.399525
138 2 0.726066 0.125 0.400829
129 2 0.96852 0.125 0.399572
128 2 0.796609 0 0.355025
187 2 0.12357 0.875 0.402679
177 2 0.223985 0.75 0.357963
171 2 0.080915 0.625 0.400926
182 2 0.487995 0.75 0.358289
179 2 0.370622 0.875 0.398127
178 2 0.334955 0.625 0.400939
159 2 0.584423 0.625 0.401646
183 2 0.633734 0.875 0.398433
186 2 0.978417 0.75 0.355755
167 2 0.882031 0.875 0.400694
166 2 0.832331 0.625 0.401287
165 2 0.737365 0.75 0.356616
164 2 0.680544 0.5 0.356525
168 2 0.012644 0.375 0.489239
147 2 0.263405 0.375 0.489045
146 2 0.229992 0.125 0.489482
145 2 0.117228 0.25 0.44481
144 2 0.0241355 0 0.444843
130 2 0.275534 4.18124e-17 0.445227
154 2 0.511995 0.375 0.489379
153 2 0.421449 0.5 0.445437
152 2 0.369886 0.25 0.443385
134 2 0.61655 0.25 0.443792
133 2 0.520987 8.36248e-17 0.442862
131 2 0.478708 0.125 0.489328
126 2 0.772583 0 0.444556
160 2 0.670689 0.5 0.445235
141 2 0.920076 0.5 0.445179
140 2 0.867434 0.25 0.444987
136 2 0.76092 0.375 0.489415
135 2 0.726071 0.125 0.48931
127 2 0.977584 0.125 0.48958
185 2 0.135235 0.875 0.489495
173 2 0.238925 0.75 0.44449
172 2 0.170799 0.5 0.445042
169 2 0.0847214 0.625 0.489454
180 2 0.488027 0.75 0.443792
175 2 0.385381 0.875 0.48929
174 2 0.333457 0.625 0.489113
155 2 0.581732 0.625 0.489383
181 2 0.630342 0.875 0.489228
184 2 0.985964 0.75 0.446454
163 2 0.881788 0.875 0.48951
162 2 0.831353 0.625 0.48971
161 2 0.736857 0.75 0.445288
232 2 0.0174022 0.375 0.577889
213 2 0.265446 0.375 0.5781
212 2 0.225938 0.125 0.57993
211 2 0.119806 0.25 0.534019
210 2 0.0262248 0 0.534118
193 2 0.276418 4.18124e-17 0.533989
220 2 0.514169 0.375 0.578636
219 2 0.420141 0.5 0.533083
218 2 0.369862 0.25 0.535291
199 2 0.61738 0.25 0.534865
198 2 0.522054 8.36248e-17 0.535572
194 2 0.485004 0.125 0.582461
226 2 0.669595 0.5 0.533577
204 2 0.868944 0.25 0.533567
201 2 0.766286 0.375 0.578511
200 2 0.728074 0.125 0.5779
191 2 0.971791 0.125 0.578768
190 2 0.773779 0 0.534046
249 2 0.131102 0.875 0.576602
239 2 0.244186 0.75 0.534104
238 2 0.171627 0.5 0.533307
233 2 0.0880279 0.625 0.577427
244 2 0.492254 0.75 0.534757
241 2 0.377593 0.875 0.580904
240 2 0.340067 0.625 0.57792
221 2 0.588005 0.625 0.577557
245 2 0.636913 0.875 0.580105
248 2 0.990665 0.75 0.532808
229 2 0.887472 0.875 0.578555
228 2 0.836268 0.625 0.57715
227 2 0.740266 0.75 0.533727
205 2 0.920866 0.5 0.533543
234 2 0.185861 0.5 0.62241
230 3 0.0166667 0.375 0.665982
209 3 0.266667 0.375 0.665982
208 3 0.183333 0.125 0.665982
207 2 0.108666 0.25 0.623152
206 2 0.0656565 0 0.62169
216 3 0.516667 0.375 0.665982
214 2 0.355479 0.25 0.623559
195 2 0.615933 0.25 0.62329
192 3 0.433333 0.125 0.665982
188 2 0.797197 8.36248e-17 0.622211
222 2 0.683412 0.5 0.622379
202 2 0.864326 0.25 0.622786
197 3 0.766667 0.375 0.665982
196 3 0.683333 0.125 0.665982
189 3 0.933333 0.125 0.665982
247 3 0.183333 0.875 0.665982
235 2 0.23713 0.75 0.622072
231 3 0.1 0.625 0.665982
242 2 0.499175 0.75 0.622824
237 3 0.433333 0.875 0.665982
236 3 0.35 0.625 0.665982
217 3 0.6 0.625 0.665982
215 2 0.434529 0.5 0.622545
246 2 0.988832 0.75 0.621696
243 3 0.683333 0.875 0.665982
225 3 0.933333 0.875 0.665982
224 3 0.85 0.625 0.665982
223 2 0.745375 0.75 0.622452
203 2 0.935144 0.5 0.622256
