ITEM: TIMESTEP
576
ITEM: NUMBER OF ATOMS
249
ITEM: BOX BOUNDS pp pp pp
0.0000000000000000e+00 1.1265258452427979e+01
0.0000000000000000e+00 1.0620987524707861e+01
0.0000000000000000e+00 5.1792180038698433e+01
ITEM: ATOMS id type xs ys zs
6 3 0.25 0 0
24 3 0 0 0
25 3 0.0833333 0.25 0
26 1 0.206766 0.125 0.0450664
27 1 0.246111 0.375 0.0435438
52 3 0.166667 0.5 0
7 1 0.453823 0.125 0.0449499
12 3 0.5 0 0
13 3 0.583333 0.25 0
32 3 0.333333 0.25 0
33 3 0.416667 0.5 0
34 1 0.495384 0.375 0.043126
46 1 0.99552 0.375 0.0437312
2 3 0.75 0 0
3 1 0.963404 0.125 0.0438429
14 1 0.714308 0.125 0.0464278
15 1 0.744576 0.375 0.0429864
18 3 0.833333 0.25 0
19 3 0.916667 0.5 0
40 3 0.666667 0.5 0
47 1 0.0875247 0.625 0.0428086
53 3 0.25 0.75 0
62 3 0 0.75 0
63 1 0.124185 0.875 0.0447108
35 1 0.586158 0.625 0.043575
54 1 0.336161 0.625 0.0432571
55 1 0.372925 0.875 0.0446681
58 3 0.5 0.75 0
59 1 0.616411 0.875 0.0422122
41 3 0.75 0.75 0
42 1 0.837724 0.625 0.0426611
43 1 0.866742 0.875 0.0454771
4 1 0.283377 2.09062e-17 0.089259
20 1 0.015706 0 0.0887033
21 1 0.110681 0.25 0.0901563
22 1 0.224959 0.125 0.136848
23 1 0.253861 0.375 0.132916
48 1 0.144533 0.5 0.087573
44 1 0.00286151 0.375 0.132385
5 1 0.470253 0.125 0.131134
8 1 0.552944 0 0.0877459
9 1 0.603272 0.25 0.0878586
28 1 0.357449 0.25 0.089535
29 1 0.395799 0.5 0.0876523
30 1 0.504805 0.375 0.13366
36 1 0.644371 0.5 0.0880268
1 1 0.969777 0.125 0.136144
10 1 0.722513 0.125 0.128285
11 1 0.754265 0.375 0.132969
16 1 0.860089 0.25 0.0884934
17 1 0.892202 0.5 0.0874995
45 1 0.102484 0.625 0.132862
49 1 0.237705 0.75 0.0886135
61 1 0.116072 0.875 0.130862
31 1 0.604228 0.625 0.132736
50 1 0.354239 0.625 0.132615
51 1 0.365381 0.875 0.136173
56 1 0.482696 0.75 0.0891956
57 1 0.620646 0.875 0.135444
60 1 0.991052 0.75 0.0866759
37 1 0.733316 0.75 0.0875811
38 1 0.854121 0.625 0.132633
39 1 0.865864 0.875 0.12992
114 1 0.148312 0.5 0.177362
86 1 0.0728414 0 0.177861
87 1 0.112803 0.25 0.17793
88 1 0.231924 0.125 0.218479
89 1 0.262211 0.375 0.222475
108 1 0.011674 0.375 0.222857
69 1 0.478435 0.125 0.22392
74 1 0.522294 4.18124e-17 0.17746
75 1 0.62179 0.25 0.177361
94 1 0.368329 0.25 0.177541
95 1 0.397441 0.5 0.177477
96 1 0.511439 0.375 0.221392
102 1 0.650298 0.5 0.17776
65 1 0.796272 0 0.177475
66 1 0.975132 0.125 0.219157
76 1 0.729797 0.125 0.225719
77 1 0.761044 0.375 0.22247
80 1 0.864528 0.25 0.177994
81 1 0.900194 0.5 0.177447
125 1 0.127751 0.875 0.224389
115 1 0.24017 0.75 0.177267
109 1 0.111994 0.625 0.222254
120 1 0.497897 0.75 0.177256
117 1 0.373263 0.875 0.219758
116 1 0.361864 0.625 0.222688
97 1 0.610303 0.625 0.223157
121 1 0.624236 0.875 0.21992
124 1 0.987444 0.75 0.178028
105 1 0.870827 0.875 0.2266
104 1 0.861885 0.625 0.222632
103 1 0.745014 0.75 0.177914
67 1 0.305655 4.18124e-17 0.266511
110 1 0.158869 0.5 0.267337
82 1 0.0361316 0 0.265903
83 1 0.123373 0.25 0.264917
84 1 0.231474 0.125 0.3112
85 1 0.261356 0.375 0.310388
106 1 0.0130946 0.375 0.310028
68 1 0.485923 0.125 0.311628
70 1 0.573236 0 0.266775
71 1 0.613882 0.25 0.266826
90 1 0.369059 0.25 0.265839
91 1 0.409403 0.5 0.267318
92 1 0.510606 0.375 0.310938
98 1 0.658167 0.5 0.267201
64 1 0.98833 0.125 0.312935
72 1 0.748733 0.125 0.303319
73 1 0.763454 0.375 0.311147
78 1 0.876446 0.25 0.265361
79 1 0.905795 0.5 0.267512
123 1 0.132623 0.875 0.308985
111 1 0.250926 0.75 0.267819
107 1 0.114563 0.625 0.313176
122 1 0.00456041 0.75 0.267342
118 1 0.492914 0.75 0.268458
113 1 0.375171 0.875 0.316493
112 1 0.363843 0.625 0.313281
93 1 0.612977 0.625 0.312028
119 1 0.632111 0.875 0.31672
101 1 0.883069 0.875 0.307375
100 1 0.863241 0.625 0.312555
99 1 0.743159 0.75 0.26798
176 2 0.209107 0.5 0.356476
170 2 0.0424113 0.375 0.400304
151 2 0.290672 0.375 0.400554
150 2 0.24986 0.125 0.399459
149 2 0.131647 0.25 0.355808
148 2 0.0924372 0 0.356685
129 2 -0.00321424 0.125 0.399739
158 2 0.540539 0.375 0.398984
157 2 0.45747 0.5 0.355955
156 2 0.376311 0.25 0.355197
137 2 0.646429 0.25 0.352159
132 2 0.512991 0.125 0.395203
143 2 0.957053 0.5 0.35613
142 2 0.889464 0.25 0.355174
139 2 0.79122 0.375 0.399098
138 2 0.754802 0.125 0.400388
128 2 0.817589 0 0.354156
187 2 0.153176 0.875 0.402595
177 2 0.247012 0.75 0.357698
171 2 0.10805 0.625 0.400586
186 2 0.00218439 0.75 0.355169
182 2 0.512179 0.75 0.357718
179 2 0.399948 0.875 0.397844
178 2 0.362673 0.625 0.400528
159 2 0.611903 0.625 0.401232
183 2 0.662457 0.875 0.398309
167 2 0.911652 0.875 0.399787
166 2 0.859618 0.625 0.400804
165 2 0.761196 0.75 0.356128
164 2 0.704374 0.5 0.356224
168 2 0.0462354 0.375 0.488451
147 2 0.297309 0.375 0.488303
146 2 0.263375 0.125 0.489202
145 2 0.148277 0.25 0.444497
144 2 0.0546903 0 0.44457
130 2 0.306359 4.18124e-17 0.444787
127 2 0.0106173 0.125 0.48933
154 2 0.545592 0.375 0.488761
153 2 0.452977 0.5 0.444913
152 2 0.400715 0.25 0.442755
134 2 0.647282 0.25 0.443326
133 2 0.551661 8.36248e-17 0.442473
131 2 0.511753 0.125 0.488945
126 2 0.803769 0 0.444045
160 2 0.701729 0.5 0.444801
141 2 0.951059 0.5 0.44455
140 2 0.898032 0.25 0.444569
136 2 0.794574 0.375 0.488703
135 2 0.759262 0.125 0.488908
185 2 0.169703 0.875 0.489112
173 2 0.269822 0.75 0.44422
172 2 0.202343 0.5 0.444354
169 2 0.115593 0.625 0.488624
184 2 0.0157198 0.75 0.446053
180 2 0.518429 0.75 0.443648
175 2 0.419927 0.875 0.48911
174 2 0.3641 0.625 0.488725
155 2 0.612412 0.625 0.489303
181 2 0.66472 0.875 0.488861
163 2 0.915484 0.875 0.489345
162 2 0.862299 0.625 0.489405
161 2 0.767435 0.75 0.444933
232 2 0.046963 0.375 0.577079
213 2 0.295264 0.375 0.577309
212 2 0.268449 0.125 0.579542
211 2 0.155975 0.25 0.533274
210 2 0.0624023 0 0.533694
193 2 0.312965 4.18124e-17 0.533615
191 2 0.0151078 0.125 0.578801
220 2 0.545389 0.375 0.577848
219 2 0.450209 0.5 0.532671
218 2 0.406072 0.25 0.534521
199 2 0.653787 0.25 0.533971
198 2 0.558903 8.36248e-17 0.535104
194 2 0.527472 0.125 0.581638
226 2 0.700445 0.5 0.533162
204 2 0.904914 0.25 0.532887
201 2 0.797056 0.375 0.577744
200 2 0.771381 0.125 0.57794
190 2 0.809567 0 0.533755
249 2 0.171231 0.875 0.576292
239 2 0.286061 0.75 0.533921
238 2 0.201358 0.5 0.532516
233 2 0.137205 0.625 0.577314
248 2 0.0324117 0.75 0.532225
244 2 0.534344 0.75 0.534971
241 2 0.41784 0.875 0.580857
240 2 0.389097 0.625 0.577978
221 2 0.637349 0.625 0.577691
245 2 0.678355 0.875 0.58039
229 2 0.928276 0.875 0.578047
228 2 0.885746 0.625 0.576955
227 2 0.78155 0.75 0.533657
205 2 0.951504 0.5 0.532807
234 2 0.241532 0.5 0.622493
230 3 0.0666667 0.375 0.665982
209 3 0.316667 0.375 0.665982
208 3 0.233333 0.125 0.665982
207 2 0.15201 0.25 0.623199
206 2 0.113417 0 0.621667
216 3 0.566667 0.375 0.665982
214 2 0.399546 0.25 0.62344
195 2 0.659413 0.25 0.623399
192 3 0.483333 0.125 0.665982
188 2 0.846057 8.36248e-17 0.621968
222 2 0.739885 0.5 0.622478
202 2 0.90778 0.25 0.622973
197 3 0.816667 0.375 0.665982
196 3 0.733333 0.125 0.665982
189 3 0.983333 0.125 0.665982
247 3 0.233333 0.875 0.665982
235 2 0.281593 0.75 0.621939
231 3 0.15 0.625 0.665982
246 2 0.0330921 0.75 0.6215
242 2 0.543015 0.75 0.62264
237 3 0.483333 0.875 0.665982
236 3 0.4 0.625 0.665982
217 3 0.65 0.625 0.665982
215 2 0.490573 0.5 0.622644
243 3 0.733333 0.875 0.665982
225 3 0.983333 0.875 0.665982
224 3 0.9 0.625 0.665982
223 2 0.789748 0.75 0.622278
203 2 0.991018 0.5 0.622292
