ITEM: TIMESTEP
1500
ITEM: NUMBER OF ATOMS
249
ITEM: BOX BOUNDS pp pp pp
0.0000000000000000e+00 1.1265258452427979e+01
0.0000000000000000e+00 1.0620987524707861e+01
0.0000000000000000e+00 5.1792180038698433e+01
ITEM: ATOMS id type xs ys zs
6 3 0.25 0 0
24 3 0 0 0
25 3 0.0833333 0.25 0
26 1 0.213096 0.125 0.0452784
27 1 0.25964 0.375 0.0436647
52 3 0.166667 0.5 0
46 1 0.00947438 0.375 0.0437185
7 1 0.462241 0.125 0.0450744
12 3 0.5 0 0
13 3 0.583333 0.25 0
32 3 0.333333 0.25 0
33 3 0.416667 0.5 0
34 1 0.50881 0.375 0.0431303
2 3 0.75 0 0
3 1 0.969177 0.125 0.0438742
14 1 0.719883 0.125 0.046681
15 1 0.757761 0.375 0.0430988
18 3 0.833333 0.25 0
19 3 0.916667 0.5 0
40 3 0.666667 0.5 0
47 1 0.0861042 0.625 0.0430515
53 3 0.25 0.75 0
62 3 0 0.75 0
63 1 0.132922 0.875 0.0444114
35 1 0.586622 0.625 0.0441241
54 1 0.334881 0.625 0.0435868
55 1 0.381245 0.875 0.0445879
58 3 0.5 0.75 0
59 1 0.625252 0.875 0.0427689
41 3 0.75 0.75 0
42 1 0.83715 0.625 0.0431093
43 1 0.875007 0.875 0.0457191
4 1 0.294871 2.09062e-17 0.0883743
20 1 0.0337437 0 0.087857
21 1 0.128679 0.25 0.0897604
22 1 0.254541 0.125 0.13556
23 1 0.282461 0.375 0.132442
48 1 0.167422 0.5 0.0873927
44 1 0.0308265 0.375 0.132301
5 1 0.498317 0.125 0.133385
8 1 0.557097 0 0.0893344
9 1 0.620593 0.25 0.088154
28 1 0.377017 0.25 0.0892452
29 1 0.419338 0.5 0.0870565
30 1 0.533034 0.375 0.133131
36 1 0.669005 0.5 0.0875678
1 1 0.998592 0.125 0.135408
10 1 0.749214 0.125 0.126914
11 1 0.78319 0.375 0.132991
16 1 0.879928 0.25 0.0878709
17 1 0.915871 0.5 0.087396
45 1 0.125 0.625 0.133364
49 1 0.260482 0.75 0.0890622
61 1 0.145899 0.875 0.130977
60 1 0.0129035 0.75 0.0871437
31 1 0.627384 0.625 0.132596
50 1 0.378093 0.625 0.132353
51 1 0.398935 0.875 0.135234
56 1 0.505911 0.75 0.0892531
57 1 0.65455 0.875 0.1352
37 1 0.756333 0.75 0.0876886
38 1 0.876301 0.625 0.132979
39 1 0.899442 0.875 0.130571
114 1 0.191973 0.5 0.176696
86 1 0.10867 0 0.177322
87 1 0.151064 0.25 0.177193
88 1 0.272764 0.125 0.218071
89 1 0.308142 0.375 0.222511
108 1 0.0590027 0.375 0.221767
66 1 0.0178021 0.125 0.218996
69 1 0.523269 0.125 0.223783
74 1 0.559114 4.18124e-17 0.177317
75 1 0.659698 0.25 0.176875
94 1 0.403183 0.25 0.177845
95 1 0.440016 0.5 0.176545
96 1 0.556522 0.375 0.220991
102 1 0.691689 0.5 0.176957
65 1 0.831964 0 0.177018
76 1 0.772331 0.125 0.225652
77 1 0.805979 0.375 0.221562
80 1 0.902849 0.25 0.178027
81 1 0.942313 0.5 0.176874
125 1 0.176756 0.875 0.222009
115 1 0.279635 0.75 0.175886
109 1 0.152933 0.625 0.221594
124 1 0.0234754 0.75 0.178055
120 1 0.535132 0.75 0.176603
117 1 0.419402 0.875 0.219148
116 1 0.401195 0.625 0.221792
97 1 0.650596 0.625 0.222895
121 1 0.669916 0.875 0.219884
105 1 0.916797 0.875 0.226893
104 1 0.901208 0.625 0.222503
103 1 0.781505 0.75 0.177777
110 1 0.220951 0.5 0.26598
82 1 0.095974 0 0.263635
83 1 0.188411 0.25 0.2648
84 1 0.308916 0.125 0.310955
85 1 0.33066 0.375 0.310042
106 1 0.0804468 0.375 0.309087
64 1 0.0624716 0.125 0.311314
67 1 0.353351 4.18124e-17 0.264538
68 1 0.561101 0.125 0.314905
70 1 0.616573 0 0.268705
90 1 0.434817 0.25 0.267401
91 1 0.472835 0.5 0.265647
92 1 0.580914 0.375 0.310784
71 1 0.675207 0.25 0.26711
98 1 0.722448 0.5 0.265629
72 1 0.818492 0.125 0.301511
73 1 0.833198 0.375 0.310015
78 1 0.94147 0.25 0.263654
79 1 0.969586 0.5 0.265871
123 1 0.203386 0.875 0.308379
111 1 0.307134 0.75 0.266429
107 1 0.183115 0.625 0.311922
122 1 0.0619953 0.75 0.265733
118 1 0.548709 0.75 0.266071
113 1 0.45101 0.875 0.31276
112 1 0.433675 0.625 0.311805
93 1 0.680655 0.625 0.310816
119 1 0.708376 0.875 0.317433
101 1 0.957349 0.875 0.306739
100 1 0.93151 0.625 0.311361
99 1 0.796294 0.75 0.268162
176 2 0.288176 0.5 0.356024
170 2 0.120549 0.375 0.399084
149 2 0.21015 0.25 0.354373
148 2 0.172242 0 0.356631
129 2 0.0860322 0.125 0.39995
143 2 0.0361187 0.5 0.355585
150 2 0.337244 0.125 0.398938
151 2 0.367191 0.375 0.399879
158 2 0.618816 0.375 0.398143
157 2 0.535775 0.5 0.355639
156 2 0.453564 0.25 0.355651
132 2 0.602321 0.125 0.394491
137 2 0.727547 0.25 0.351606
142 2 0.969436 0.25 0.3543
139 2 0.869217 0.375 0.398213
138 2 0.844522 0.125 0.399828
128 2 0.896809 0 0.352919
187 2 0.243731 0.875 0.402377
177 2 0.326492 0.75 0.356155
171 2 0.199731 0.625 0.399612
186 2 0.0795087 0.75 0.354056
167 2 0.00103043 0.875 0.399002
182 2 0.588319 0.75 0.356419
179 2 0.489252 0.875 0.39762
178 2 0.453149 0.625 0.400111
159 2 0.703368 0.625 0.400423
183 2 0.750763 0.875 0.39786
166 2 0.951582 0.625 0.400139
165 2 0.839415 0.75 0.355179
164 2 0.783393 0.5 0.355525
168 2 0.148832 0.375 0.487872
145 2 0.240917 0.25 0.444329
144 2 0.150443 0 0.444101
127 2 0.109867 0.125 0.489096
141 2 0.0551523 0.5 0.443886
146 2 0.363308 0.125 0.489042
147 2 0.401513 0.375 0.48725
130 2 0.402106 4.18124e-17 0.444257
154 2 0.649399 0.375 0.487774
153 2 0.556759 0.5 0.444139
152 2 0.494023 0.25 0.442011
133 2 0.647793 8.36248e-17 0.442219
131 2 0.61138 0.125 0.488859
134 2 0.740527 0.25 0.442916
126 2 0.900016 0 0.443401
160 2 0.805445 0.5 0.44422
140 2 0.990759 0.25 0.444034
136 2 0.898469 0.375 0.487795
135 2 0.859134 0.125 0.488701
185 2 0.272041 0.875 0.488627
172 2 0.305074 0.5 0.444146
169 2 0.212125 0.625 0.488032
184 2 0.109173 0.75 0.445467
163 2 0.0170348 0.875 0.488981
173 2 0.362965 0.75 0.444032
180 2 0.611408 0.75 0.443374
175 2 0.522575 0.875 0.488999
174 2 0.461374 0.625 0.488235
155 2 0.709652 0.625 0.488954
181 2 0.766969 0.875 0.48847
162 2 0.96021 0.625 0.488757
161 2 0.860483 0.75 0.444451
232 2 0.161918 0.375 0.576737
211 2 0.265994 0.25 0.532683
210 2 0.172418 0 0.532614
191 2 0.132637 0.125 0.578459
204 2 0.014449 0.25 0.532723
212 2 0.384495 0.125 0.578736
213 2 0.410505 0.375 0.576944
193 2 0.42345 4.18124e-17 0.532905
220 2 0.661365 0.375 0.577436
219 2 0.553094 0.5 0.531882
218 2 0.516147 0.25 0.53384
194 2 0.642237 0.125 0.580758
198 2 0.669858 8.36248e-17 0.534543
199 2 0.764022 0.25 0.533351
226 2 0.80343 0.5 0.532133
201 2 0.91194 0.375 0.577426
200 2 0.887687 0.125 0.577908
190 2 0.918869 0 0.533173
249 2 0.284952 0.875 0.575836
238 2 0.303893 0.5 0.531596
233 2 0.25858 0.625 0.577369
248 2 0.145141 0.75 0.532012
205 2 0.0535812 0.5 0.532029
229 2 0.0421721 0.875 0.576595
228 2 0.00724632 0.625 0.577171
239 2 0.398405 0.75 0.533745
244 2 0.646862 0.75 0.535081
241 2 0.531655 0.875 0.580529
240 2 0.510019 0.625 0.577869
221 2 0.758792 0.625 0.577482
245 2 0.794069 0.875 0.580384
227 2 0.893787 0.75 0.533319
230 3 0.2 0.375 0.665982
207 2 0.274748 0.25 0.622823
206 2 0.242388 0 0.621942
189 3 0.116667 0.125 0.665982
202 2 0.0310642 0.25 0.62284
208 3 0.366667 0.125 0.665982
234 2 0.368254 0.5 0.622712
209 3 0.45 0.375 0.665982
214 2 0.522365 0.25 0.623002
192 3 0.616667 0.125 0.665982
216 3 0.7 0.375 0.665982
195 2 0.782765 0.25 0.623325
188 2 0.975029 8.36248e-17 0.621664
222 2 0.866993 0.5 0.622737
197 3 0.95 0.375 0.665982
196 3 0.866667 0.125 0.665982
231 3 0.283333 0.625 0.665982
246 2 0.155402 0.75 0.621093
225 3 0.116667 0.875 0.665982
203 2 0.117746 0.5 0.622563
224 3 0.0333333 0.625 0.665982
247 3 0.366667 0.875 0.665982
235 2 0.404325 0.75 0.621562
242 2 0.664663 0.75 0.621974
237 3 0.616667 0.875 0.665982
236 3 0.533333 0.625 0.665982
215 2 0.617827 0.5 0.622791
217 3 0.783333 0.625 0.665982
243 3 0.866667 0.875 0.665982
223 2 0.911969 0.75 0.621708
