ITEM: TIMESTEP
1762
ITEM: NUMBER OF ATOMS
249
ITEM: BOX BOUNDS pp pp pp
0.0000000000000000e+00 1.1265258452427979e+01
0.0000000000000000e+00 1.0620987524707861e+01
0.0000000000000000e+00 5.1792180038698433e+01
ITEM: ATOMS id type xs ys zs
6 3 0.25 0 0
24 3 0 0 0
25 3 0.0833333 0.25 0
26 1 0.215206 0.125 0.045293
27 1 0.267013 0.375 0.0439718
52 3 0.166667 0.5 0
46 1 0.01724 0.375 0.0440107
7 1 0.465043 0.125 0.0450812
12 3 0.5 0 0
13 3 0.583333 0.25 0
32 3 0.333333 0.25 0
33 3 0.416667 0.5 0
34 1 0.516117 0.375 0.0433563
2 3 0.75 0 0
3 1 0.970942 0.125 0.0438413
14 1 0.722204 0.125 0.0466073
15 1 0.765111 0.375 0.0433393
18 3 0.833333 0.25 0
19 3 0.916667 0.5 0
40 3 0.666667 0.5 0
47 1 0.0814175 0.625 0.043079
53 3 0.25 0.75 0
62 3 0 0.75 0
63 1 0.137018 0.875 0.0443538
54 1 0.33054 0.625 0.0436014
35 1 0.582956 0.625 0.0440345
55 1 0.38486 0.875 0.0445363
58 3 0.5 0.75 0
59 1 0.629009 0.875 0.0429979
41 3 0.75 0.75 0
42 1 0.83281 0.625 0.0429906
43 1 0.878503 0.875 0.0458593
4 1 0.300598 2.09062e-17 0.0882431
20 1 0.0397651 0 0.0875677
21 1 0.135378 0.25 0.0897526
22 1 0.263529 0.125 0.13524
23 1 0.291958 0.375 0.13236
48 1 0.174202 0.5 0.087738
44 1 0.0395608 0.375 0.132212
1 1 0.00762201 0.125 0.135075
5 1 0.506632 0.125 0.133703
8 1 0.562454 0 0.0895978
9 1 0.626888 0.25 0.0881567
28 1 0.383835 0.25 0.0891892
29 1 0.426032 0.5 0.0871904
30 1 0.542304 0.375 0.133039
36 1 0.6759 0.5 0.0875928
10 1 0.757843 0.125 0.12664
11 1 0.792428 0.375 0.132882
16 1 0.886416 0.25 0.0876564
17 1 0.922902 0.5 0.0875281
45 1 0.131395 0.625 0.134018
49 1 0.268558 0.75 0.0893901
61 1 0.15605 0.875 0.131251
60 1 0.0214635 0.75 0.0877579
31 1 0.6333 0.625 0.132762
50 1 0.384431 0.625 0.13256
51 1 0.408834 0.875 0.135263
56 1 0.514044 0.75 0.0893919
57 1 0.664925 0.875 0.135053
37 1 0.764759 0.75 0.087934
38 1 0.882296 0.625 0.133343
39 1 0.910034 0.875 0.130837
114 1 0.209501 0.5 0.176631
86 1 0.118934 0 0.177211
87 1 0.163018 0.25 0.176736
88 1 0.285383 0.125 0.217741
89 1 0.324312 0.375 0.222522
108 1 0.0757634 0.375 0.221262
66 1 0.0304977 0.125 0.218749
69 1 0.537913 0.125 0.223559
74 1 0.571006 4.18124e-17 0.177152
94 1 0.414389 0.25 0.177834
95 1 0.456506 0.5 0.176434
96 1 0.572232 0.375 0.220634
75 1 0.67179 0.25 0.176602
102 1 0.707611 0.5 0.176736
65 1 0.843109 0 0.176932
76 1 0.786375 0.125 0.225235
77 1 0.821599 0.375 0.221213
80 1 0.91507 0.25 0.177827
81 1 0.958263 0.5 0.176769
125 1 0.193924 0.875 0.22112
115 1 0.292331 0.75 0.175884
109 1 0.166537 0.625 0.22145
124 1 0.0348522 0.75 0.178218
120 1 0.546901 0.75 0.176802
117 1 0.435395 0.875 0.219225
116 1 0.414751 0.625 0.221803
97 1 0.66496 0.625 0.222938
121 1 0.685086 0.875 0.220091
105 1 0.932525 0.875 0.227065
104 1 0.914889 0.625 0.222463
103 1 0.79306 0.75 0.17784
110 1 0.241755 0.5 0.265723
82 1 0.117026 0 0.26288
83 1 0.207972 0.25 0.264852
84 1 0.330917 0.125 0.310954
106 1 0.10107 0.375 0.308837
64 1 0.0841202 0.125 0.310897
85 1 0.351941 0.375 0.309824
67 1 0.373534 4.18124e-17 0.264546
68 1 0.582928 0.125 0.315059
70 1 0.636292 0 0.268831
90 1 0.45409 0.25 0.267429
91 1 0.494095 0.5 0.265335
92 1 0.602097 0.375 0.310562
71 1 0.693954 0.25 0.266843
98 1 0.743967 0.5 0.265396
72 1 0.839884 0.125 0.300922
73 1 0.854447 0.375 0.309541
78 1 0.961011 0.25 0.263101
79 1 0.991185 0.5 0.265344
123 1 0.224556 0.875 0.308248
111 1 0.32454 0.75 0.266165
107 1 0.204386 0.625 0.311594
122 1 0.0803512 0.75 0.265312
118 1 0.56599 0.75 0.265944
113 1 0.472595 0.875 0.312543
112 1 0.455036 0.625 0.311447
93 1 0.701702 0.625 0.31059
119 1 0.730339 0.875 0.31747
101 1 0.978899 0.875 0.306275
100 1 0.952782 0.625 0.310924
99 1 0.813243 0.75 0.268262
176 2 0.312334 0.5 0.355784
170 2 0.144445 0.375 0.398706
149 2 0.233364 0.25 0.354003
148 2 0.195324 0 0.356536
129 2 0.111843 0.125 0.399967
143 2 0.0600466 0.5 0.355377
150 2 0.362825 0.125 0.398548
151 2 0.390754 0.375 0.399619
158 2 0.642956 0.375 0.397882
157 2 0.559857 0.5 0.355506
156 2 0.476691 0.25 0.355624
132 2 0.628234 0.125 0.394087
137 2 0.751433 0.25 0.351269
142 2 0.992995 0.25 0.354096
139 2 0.89312 0.375 0.397962
138 2 0.870356 0.125 0.399623
128 2 0.920043 0 0.352499
187 2 0.270684 0.875 0.402127
171 2 0.22635 0.625 0.399277
186 2 0.102626 0.75 0.353631
167 2 0.0273261 0.875 0.398767
177 2 0.349908 0.75 0.355905
182 2 0.611371 0.75 0.356135
179 2 0.515805 0.875 0.397343
178 2 0.479654 0.625 0.399908
159 2 0.730222 0.625 0.400088
183 2 0.776807 0.875 0.397592
166 2 0.978448 0.625 0.39985
165 2 0.86293 0.75 0.354821
164 2 0.807704 0.5 0.355255
168 2 0.179573 0.375 0.487671
145 2 0.268135 0.25 0.444095
144 2 0.179684 0 0.443847
127 2 0.138236 0.125 0.488854
141 2 0.0861976 0.5 0.443727
140 2 0.0178159 0.25 0.44379
146 2 0.391997 0.125 0.488744
147 2 0.43267 0.375 0.486902
130 2 0.431348 4.18124e-17 0.443876
153 2 0.587884 0.5 0.443974
152 2 0.521342 0.25 0.441587
131 2 0.639891 0.125 0.488632
154 2 0.680489 0.375 0.487497
133 2 0.677134 8.36248e-17 0.441931
134 2 0.767725 0.25 0.4427
126 2 0.929279 0 0.443115
160 2 0.836372 0.5 0.444073
136 2 0.929549 0.375 0.487564
135 2 0.887612 0.125 0.488504
185 2 0.302553 0.875 0.48825
169 2 0.24237 0.625 0.487829
184 2 0.137161 0.75 0.445125
163 2 0.0472758 0.875 0.488699
172 2 0.336032 0.5 0.444127
173 2 0.390665 0.75 0.443727
180 2 0.639028 0.75 0.443082
175 2 0.553044 0.875 0.488711
174 2 0.491868 0.625 0.488044
155 2 0.740211 0.625 0.488776
181 2 0.797252 0.875 0.488164
162 2 0.990811 0.625 0.488466
161 2 0.888186 0.75 0.444133
232 2 0.196404 0.375 0.576554
211 2 0.298839 0.25 0.532336
210 2 0.206561 0 0.531958
191 2 0.167806 0.125 0.578015
204 2 0.0471572 0.25 0.532552
212 2 0.418998 0.125 0.578113
213 2 0.445025 0.375 0.576732
193 2 0.457591 4.18124e-17 0.532328
219 2 0.584627 0.5 0.531603
218 2 0.549071 0.25 0.533483
194 2 0.676198 0.125 0.580144
220 2 0.696143 0.375 0.577219
198 2 0.70429 8.36248e-17 0.533998
199 2 0.796981 0.25 0.533057
226 2 0.834993 0.5 0.531808
201 2 0.946474 0.375 0.577253
200 2 0.92238 0.125 0.577612
190 2 0.952769 0 0.532668
249 2 0.318843 0.875 0.575549
233 2 0.29527 0.625 0.577376
248 2 0.177768 0.75 0.531878
205 2 0.0849459 0.5 0.531778
229 2 0.0761907 0.875 0.575869
228 2 0.0440325 0.625 0.577249
238 2 0.335402 0.5 0.531304
239 2 0.430553 0.75 0.533525
241 2 0.565854 0.875 0.580018
240 2 0.546645 0.625 0.577808
244 2 0.679151 0.75 0.534893
221 2 0.795594 0.625 0.577399
245 2 0.828795 0.875 0.579992
227 2 0.926171 0.75 0.533031
230 3 0.241667 0.375 0.665982
207 2 0.310522 0.25 0.622455
206 2 0.282822 0 0.621983
189 3 0.158333 0.125 0.665982
202 2 0.0673991 0.25 0.622601
188 2 0.015568 8.36248e-17 0.621522
208 3 0.408333 0.125 0.665982
234 2 0.407596 0.5 0.622776
209 3 0.491667 0.375 0.665982
214 2 0.558225 0.25 0.622612
192 3 0.658333 0.125 0.665982
216 3 0.741667 0.375 0.665982
195 2 0.819242 0.25 0.623111
222 2 0.906635 0.5 0.622817
197 3 0.991667 0.375 0.665982
196 3 0.908333 0.125 0.665982
231 3 0.325 0.625 0.665982
246 2 0.192863 0.75 0.620951
225 3 0.158333 0.875 0.665982
203 2 0.157107 0.5 0.622649
224 3 0.075 0.625 0.665982
247 3 0.408333 0.875 0.665982
235 2 0.441996 0.75 0.621408
237 3 0.658333 0.875 0.665982
236 3 0.575 0.625 0.665982
215 2 0.657493 0.5 0.622848
242 2 0.701845 0.75 0.621721
217 3 0.825 0.625 0.665982
243 3 0.908333 0.875 0.665982
223 2 0.949415 0.75 0.621486
