ITEM: TIMESTEP
905
ITEM: NUMBER OF ATOMS
249
ITEM: BOX BOUNDS pp pp pp
0.0000000000000000e+00 1.1265258452427979e+01
0.0000000000000000e+00 1.0620987524707861e+01
0.0000000000000000e+00 5.1792180038698433e+01
ITEM: ATOMS id type xs ys zs
6 3 0.25 0 0
24 3 0 0 0
25 3 0.0833333 0.25 0
26 1 0.209436 0.125 0.0452448
27 1 0.251873 0.375 0.0435134
52 3 0.166667 0.5 0
46 1 0.00142796 0.375 0.0436292
7 1 0.457692 0.125 0.0450736
12 3 0.5 0 0
13 3 0.583333 0.25 0
32 3 0.333333 0.25 0
33 3 0.416667 0.5 0
34 1 0.500989 0.375 0.0430686
2 3 0.75 0 0
3 1 0.965886 0.125 0.0438611
14 1 0.7171 0.125 0.0464405
15 1 0.75005 0.375 0.0429689
18 3 0.833333 0.25 0
19 3 0.916667 0.5 0
40 3 0.666667 0.5 0
47 1 0.0890965 0.625 0.0429415
53 3 0.25 0.75 0
62 3 0 0.75 0
63 1 0.127722 0.875 0.0445653
35 1 0.588104 0.625 0.0438704
54 1 0.337699 0.625 0.0434408
55 1 0.376069 0.875 0.0445671
58 3 0.5 0.75 0
59 1 0.619732 0.875 0.0423551
41 3 0.75 0.75 0
42 1 0.839473 0.625 0.0428816
43 1 0.869925 0.875 0.0456808
4 1 0.290287 2.09062e-17 0.0889047
20 1 0.0250738 0 0.0882836
21 1 0.118566 0.25 0.0899571
22 1 0.237731 0.125 0.136344
23 1 0.266268 0.375 0.132736
48 1 0.15474 0.5 0.0874058
44 1 0.0152005 0.375 0.132382
5 1 0.482699 0.125 0.131879
8 1 0.557359 0 0.0882917
9 1 0.611156 0.25 0.087958
28 1 0.365882 0.25 0.0894219
29 1 0.40632 0.5 0.0873502
30 1 0.517141 0.375 0.133433
36 1 0.655144 0.5 0.087823
1 1 0.982684 0.125 0.13594
10 1 0.735025 0.125 0.127659
11 1 0.767038 0.375 0.133002
16 1 0.869005 0.25 0.0882047
17 1 0.902519 0.5 0.0874045
45 1 0.113857 0.625 0.132895
49 1 0.247445 0.75 0.0886948
61 1 0.1287 0.875 0.130795
31 1 0.61587 0.625 0.132646
50 1 0.36601 0.625 0.132446
51 1 0.379326 0.875 0.135922
56 1 0.492472 0.75 0.0892403
57 1 0.635193 0.875 0.135337
60 1 1.0005 0.75 0.0866749
37 1 0.743129 0.75 0.0875515
38 1 0.865343 0.625 0.132658
39 1 0.880133 0.875 0.130052
114 1 0.165733 0.5 0.177115
86 1 0.0888406 0 0.177768
87 1 0.129548 0.25 0.177793
88 1 0.251162 0.125 0.218369
89 1 0.281599 0.375 0.222514
108 1 0.0315467 0.375 0.222596
69 1 0.49824 0.125 0.223793
74 1 0.538346 4.18124e-17 0.17733
75 1 0.638641 0.25 0.177102
94 1 0.383952 0.25 0.177595
95 1 0.414609 0.5 0.177115
96 1 0.530706 0.375 0.221238
102 1 0.667133 0.5 0.177462
65 1 0.812021 0 0.177268
66 1 0.994582 0.125 0.219366
76 1 0.748533 0.125 0.225779
77 1 0.780024 0.375 0.222187
80 1 0.881581 0.25 0.17822
81 1 0.917373 0.5 0.177194
125 1 0.148012 0.875 0.223727
115 1 0.257015 0.75 0.176795
109 1 0.130631 0.625 0.222053
124 1 0.00353919 0.75 0.177947
120 1 0.51423 0.75 0.176872
117 1 0.393027 0.875 0.219647
116 1 0.379868 0.625 0.222349
97 1 0.628275 0.625 0.223023
121 1 0.643452 0.875 0.21985
105 1 0.890181 0.875 0.226572
104 1 0.880045 0.625 0.222491
103 1 0.761151 0.75 0.177817
67 1 0.323276 4.18124e-17 0.265668
110 1 0.183652 0.5 0.266891
82 1 0.0588493 0 0.265207
83 1 0.150016 0.25 0.264955
84 1 0.263196 0.125 0.311304
85 1 0.289998 0.375 0.310259
106 1 0.0407569 0.375 0.309735
64 1 0.0186521 0.125 0.312397
68 1 0.516574 0.125 0.313047
70 1 0.589944 0 0.267368
71 1 0.639518 0.25 0.267054
90 1 0.396533 0.25 0.266361
91 1 0.43455 0.5 0.266746
92 1 0.539575 0.375 0.310946
98 1 0.683387 0.5 0.266648
72 1 0.777189 0.125 0.302647
73 1 0.792388 0.375 0.310877
78 1 0.902941 0.25 0.264818
79 1 0.930877 0.5 0.26695
123 1 0.160602 0.875 0.308803
111 1 0.274769 0.75 0.267417
107 1 0.143225 0.625 0.3128
122 1 0.0286521 0.75 0.26678
118 1 0.516497 0.75 0.267836
113 1 0.404705 0.875 0.315475
112 1 0.392841 0.625 0.312926
93 1 0.641406 0.625 0.311677
119 1 0.662782 0.875 0.316865
101 1 0.912683 0.875 0.307234
100 1 0.891537 0.625 0.312173
99 1 0.766144 0.75 0.267863
176 2 0.24208 0.5 0.356385
170 2 0.0772927 0.375 0.399895
151 2 0.324936 0.375 0.400367
150 2 0.286392 0.125 0.399355
149 2 0.164672 0.25 0.355279
148 2 0.124539 0 0.35689
129 2 0.0341927 0.125 0.400118
158 2 0.57502 0.375 0.398684
157 2 0.490039 0.5 0.355906
156 2 0.408969 0.25 0.35541
132 2 0.550559 0.125 0.394978
137 2 0.680607 0.25 0.352014
143 2 0.99003 0.5 0.355979
142 2 0.923257 0.25 0.355065
139 2 0.825601 0.375 0.398836
138 2 0.792482 0.125 0.400286
128 2 0.849286 0 0.353635
187 2 0.191201 0.875 0.402787
177 2 0.278858 0.75 0.357364
171 2 0.145282 0.625 0.400313
186 2 0.0338416 0.75 0.354733
182 2 0.54391 0.75 0.357214
179 2 0.437632 0.875 0.397823
178 2 0.39984 0.625 0.400391
159 2 0.649127 0.625 0.401003
183 2 0.699732 0.875 0.398316
167 2 0.949415 0.875 0.399431
166 2 0.896975 0.625 0.400556
165 2 0.793216 0.75 0.355838
164 2 0.737282 0.5 0.35607
168 2 0.0895704 0.375 0.488205
146 2 0.305776 0.125 0.489337
145 2 0.187895 0.25 0.444599
144 2 0.0944839 0 0.444618
127 2 0.0526242 0.125 0.489448
147 2 0.341222 0.375 0.487914
130 2 0.346335 4.18124e-17 0.444737
154 2 0.589295 0.375 0.488398
153 2 0.494069 0.5 0.44455
152 2 0.440457 0.25 0.442556
133 2 0.591688 8.36248e-17 0.442497
131 2 0.553977 0.125 0.489059
134 2 0.68702 0.25 0.443245
126 2 0.844015 0 0.443921
160 2 0.742795 0.5 0.444529
141 2 0.992122 0.5 0.444155
140 2 0.937607 0.25 0.444468
136 2 0.838364 0.375 0.488334
135 2 0.801547 0.125 0.488965
185 2 0.213363 0.875 0.489065
173 2 0.30952 0.75 0.444233
172 2 0.242974 0.5 0.444063
169 2 0.154612 0.625 0.48821
184 2 0.0549844 0.75 0.445927
180 2 0.557804 0.75 0.443692
175 2 0.463667 0.875 0.489251
174 2 0.403185 0.625 0.488475
155 2 0.65161 0.625 0.489131
181 2 0.70825 0.875 0.488839
163 2 0.958492 0.875 0.489413
162 2 0.901933 0.625 0.489157
161 2 0.806938 0.75 0.444818
232 2 0.096536 0.375 0.576944
212 2 0.318877 0.125 0.579369
211 2 0.203126 0.25 0.533136
210 2 0.109332 0 0.533415
191 2 0.0660653 0.125 0.578851
213 2 0.345014 0.375 0.577175
193 2 0.360175 4.18124e-17 0.533502
220 2 0.595498 0.375 0.577706
219 2 0.493043 0.5 0.532312
218 2 0.453212 0.25 0.534341
198 2 0.60619 8.36248e-17 0.535055
194 2 0.577253 0.125 0.581433
199 2 0.700951 0.25 0.53378
226 2 0.743369 0.5 0.532707
204 2 0.951809 0.25 0.532904
201 2 0.846612 0.375 0.577608
200 2 0.821782 0.125 0.578101
190 2 0.856037 0 0.533678
249 2 0.220746 0.875 0.576181
238 2 0.243911 0.5 0.532059
233 2 0.190248 0.625 0.577385
248 2 0.0821201 0.75 0.532126
239 2 0.335736 0.75 0.534002
244 2 0.584026 0.75 0.535191
241 2 0.467225 0.875 0.580965
240 2 0.441925 0.625 0.577992
221 2 0.690397 0.625 0.577685
245 2 0.728491 0.875 0.580611
229 2 0.977869 0.875 0.577571
228 2 0.938937 0.625 0.577048
227 2 0.83097 0.75 0.53371
205 2 0.99405 0.5 0.532395
234 2 0.296524 0.5 0.622617
230 3 0.125 0.375 0.665982
208 3 0.291667 0.125 0.665982
207 2 0.205995 0.25 0.623117
206 2 0.169339 0 0.621818
189 3 0.0416667 0.125 0.665982
209 3 0.375 0.375 0.665982
216 3 0.625 0.375 0.665982
214 2 0.453537 0.25 0.623333
192 3 0.541667 0.125 0.665982
195 2 0.713397 0.25 0.623442
188 2 0.902022 8.36248e-17 0.621901
222 2 0.795035 0.5 0.62261
202 2 0.9618 0.25 0.622991
197 3 0.875 0.375 0.665982
196 3 0.791667 0.125 0.665982
247 3 0.291667 0.875 0.665982
231 3 0.208333 0.625 0.665982
246 2 0.0864437 0.75 0.621329
225 3 0.0416667 0.875 0.665982
203 2 0.0460103 0.5 0.622437
235 2 0.335102 0.75 0.621784
242 2 0.596024 0.75 0.622372
237 3 0.541667 0.875 0.665982
236 3 0.458333 0.625 0.665982
215 2 0.545742 0.5 0.622738
217 3 0.708333 0.625 0.665982
243 3 0.791667 0.875 0.665982
224 3 0.958333 0.625 0.665982
223 2 0.843027 0.75 0.622039
