ITEM: TIMESTEP
794
ITEM: NUMBER OF ATOMS
249
ITEM: BOX BOUNDS pp pp pp
0.0000000000000000e+00 1.1265258452427979e+01
0.0000000000000000e+00 1.0620987524707861e+01
0.0000000000000000e+00 5.1792180038698433e+01
ITEM: ATOMS id type xs ys zs
6 3 0.25 0 0
24 3 0 0 0
25 3 0.0833333 0.25 0
26 1 0.208548 0.125 0.0452325
27 1 0.250322 0.375 0.0435033
52 3 0.166667 0.5 0
7 1 0.456634 0.125 0.0450716
12 3 0.5 0 0
13 3 0.583333 0.25 0
32 3 0.333333 0.25 0
33 3 0.416667 0.5 0
34 1 0.499441 0.375 0.0430739
46 1 0.999881 0.375 0.0436459
2 3 0.75 0 0
3 1 0.965041 0.125 0.0438444
14 1 0.716467 0.125 0.0463646
15 1 0.748538 0.375 0.0429647
18 3 0.833333 0.25 0
19 3 0.916667 0.5 0
40 3 0.666667 0.5 0
47 1 0.0889622 0.625 0.0429044
53 3 0.25 0.75 0
62 3 0 0.75 0
63 1 0.126748 0.875 0.0446121
35 1 0.587838 0.625 0.043786
54 1 0.337577 0.625 0.0433966
55 1 0.374969 0.875 0.0445687
58 3 0.5 0.75 0
59 1 0.618533 0.875 0.0422717
41 3 0.75 0.75 0
42 1 0.839275 0.625 0.0428024
43 1 0.86888 0.875 0.0456751
4 1 0.289773 2.09062e-17 0.0890611
20 1 0.0232889 0 0.0883472
21 1 0.116373 0.25 0.0900129
22 1 0.233842 0.125 0.136521
23 1 0.262715 0.375 0.132801
48 1 0.151826 0.5 0.0874545
44 1 0.0116904 0.375 0.132384
5 1 0.479002 0.125 0.131471
8 1 0.557994 0 0.0880453
9 1 0.608986 0.25 0.0879037
28 1 0.363329 0.25 0.0894484
29 1 0.403299 0.5 0.087447
30 1 0.513578 0.375 0.13351
36 1 0.651962 0.5 0.0878937
1 1 0.979009 0.125 0.136009
10 1 0.731681 0.125 0.127888
11 1 0.763369 0.375 0.132974
16 1 0.866496 0.25 0.0882769
17 1 0.89951 0.5 0.0874184
45 1 0.110743 0.625 0.132878
49 1 0.244505 0.75 0.0886758
61 1 0.125049 0.875 0.130774
31 1 0.612695 0.625 0.132675
50 1 0.36276 0.625 0.132506
51 1 0.374843 0.875 0.136125
56 1 0.489456 0.75 0.0892561
57 1 0.630674 0.875 0.135355
60 1 0.997774 0.75 0.0866479
37 1 0.740195 0.75 0.0875453
38 1 0.862318 0.625 0.13263
39 1 0.875797 0.875 0.129903
114 1 0.160615 0.5 0.177189
86 1 0.0840873 0 0.177821
87 1 0.124639 0.25 0.177873
88 1 0.245518 0.125 0.218438
89 1 0.276011 0.375 0.222503
108 1 0.0258206 0.375 0.222698
69 1 0.49249 0.125 0.22383
74 1 0.53358 4.18124e-17 0.177339
75 1 0.633704 0.25 0.177155
94 1 0.379471 0.25 0.177548
95 1 0.40955 0.5 0.177241
96 1 0.525151 0.375 0.221267
102 1 0.662208 0.5 0.177555
65 1 0.80742 0 0.177322
66 1 0.988791 0.125 0.219328
76 1 0.743115 0.125 0.225675
77 1 0.774536 0.375 0.222281
80 1 0.876645 0.25 0.178156
81 1 0.912328 0.5 0.17726
125 1 0.142107 0.875 0.223968
115 1 0.252007 0.75 0.176977
109 1 0.12535 0.625 0.222117
120 1 0.509494 0.75 0.177002
117 1 0.387205 0.875 0.21971
116 1 0.374829 0.625 0.222481
97 1 0.623255 0.625 0.223063
121 1 0.637734 0.875 0.219852
124 1 0.998923 0.75 0.177936
105 1 0.884516 0.875 0.226561
104 1 0.875022 0.625 0.222508
103 1 0.756533 0.75 0.177817
67 1 0.318811 4.18124e-17 0.266057
110 1 0.176236 0.5 0.267039
82 1 0.0521845 0 0.265441
83 1 0.141727 0.25 0.264992
84 1 0.253204 0.125 0.311371
85 1 0.281322 0.375 0.310278
106 1 0.0323289 0.375 0.309835
64 1 0.0092398 0.125 0.312594
68 1 0.507028 0.125 0.312451
70 1 0.586176 0 0.267048
71 1 0.6317 0.25 0.266953
90 1 0.3879 0.25 0.266133
91 1 0.427002 0.5 0.266951
92 1 0.530725 0.375 0.31091
98 1 0.675761 0.5 0.266844
72 1 0.768616 0.125 0.302843
73 1 0.783623 0.375 0.310966
78 1 0.894705 0.25 0.264988
79 1 0.923324 0.5 0.267133
123 1 0.151907 0.875 0.308861
111 1 0.267595 0.75 0.267581
107 1 0.134609 0.625 0.31293
122 1 0.0214482 0.75 0.266963
118 1 0.509399 0.75 0.26814
113 1 0.395255 0.875 0.31601
112 1 0.38406 0.625 0.313077
93 1 0.632946 0.625 0.311815
119 1 0.653059 0.875 0.316747
101 1 0.903354 0.875 0.307234
100 1 0.883022 0.625 0.312299
99 1 0.759376 0.75 0.267861
176 2 0.232149 0.5 0.356408
170 2 0.0670085 0.375 0.400041
151 2 0.314893 0.375 0.400396
150 2 0.275601 0.125 0.399329
149 2 0.154806 0.25 0.355454
148 2 0.114236 0 0.356882
129 2 0.0231034 0.125 0.40008
158 2 0.564818 0.375 0.39877
157 2 0.480252 0.5 0.355911
156 2 0.39935 0.25 0.355297
132 2 0.539491 0.125 0.395042
137 2 0.670369 0.25 0.352016
143 2 0.980091 0.5 0.356038
142 2 0.91321 0.25 0.355144
139 2 0.81541 0.375 0.398935
138 2 0.78137 0.125 0.4003
128 2 0.839158 0 0.353746
187 2 0.179941 0.875 0.402767
177 2 0.268984 0.75 0.357541
171 2 0.13401 0.625 0.400413
186 2 0.0242352 0.75 0.354831
182 2 0.534437 0.75 0.357376
179 2 0.426518 0.875 0.397834
178 2 0.388732 0.625 0.400412
159 2 0.637945 0.625 0.40108
183 2 0.688675 0.875 0.398343
167 2 0.938257 0.875 0.399504
166 2 0.885726 0.625 0.400616
165 2 0.783524 0.75 0.355925
164 2 0.727391 0.5 0.356136
168 2 0.0768645 0.375 0.488243
147 2 0.328301 0.375 0.48802
146 2 0.293366 0.125 0.489317
145 2 0.176256 0.25 0.444573
144 2 0.0826138 0 0.44464
127 2 0.0403144 0.125 0.489438
130 2 0.334431 4.18124e-17 0.444751
154 2 0.576427 0.375 0.488495
153 2 0.481814 0.5 0.444653
152 2 0.42867 0.25 0.442609
133 2 0.579757 8.36248e-17 0.442498
131 2 0.541589 0.125 0.489035
134 2 0.675253 0.25 0.443271
126 2 0.832037 0 0.443956
160 2 0.730544 0.5 0.444612
141 2 0.979815 0.5 0.444267
140 2 0.925851 0.25 0.444518
136 2 0.825459 0.375 0.48844
135 2 0.789138 0.125 0.48896
185 2 0.200625 0.875 0.489087
173 2 0.297819 0.75 0.444223
172 2 0.230922 0.5 0.444106
169 2 0.14291 0.625 0.488288
184 2 0.0432797 0.75 0.445976
180 2 0.546137 0.75 0.443698
175 2 0.450862 0.875 0.489224
174 2 0.391389 0.625 0.488545
155 2 0.639817 0.625 0.489191
181 2 0.695509 0.875 0.488854
163 2 0.945843 0.875 0.489417
162 2 0.890039 0.625 0.489256
161 2 0.795277 0.75 0.444857
232 2 0.0821515 0.375 0.57698
213 2 0.330581 0.375 0.577207
212 2 0.304371 0.125 0.579436
211 2 0.189422 0.25 0.533183
210 2 0.095606 0 0.533512
191 2 0.0513906 0.125 0.578861
193 2 0.346379 4.18124e-17 0.533555
220 2 0.580979 0.375 0.577749
219 2 0.480221 0.5 0.532404
218 2 0.439506 0.25 0.534399
198 2 0.592356 8.36248e-17 0.535085
194 2 0.562924 0.125 0.581503
199 2 0.687224 0.25 0.533835
226 2 0.730533 0.5 0.53284
204 2 0.938194 0.25 0.532895
201 2 0.832251 0.375 0.577636
200 2 0.807276 0.125 0.578073
190 2 0.842423 0 0.533716
249 2 0.20649 0.875 0.576221
239 2 0.321603 0.75 0.534006
238 2 0.231133 0.5 0.532163
233 2 0.175157 0.625 0.577374
248 2 0.0679511 0.75 0.532134
244 2 0.569876 0.75 0.535158
241 2 0.452993 0.875 0.580972
240 2 0.426901 0.625 0.578004
221 2 0.675301 0.625 0.577713
245 2 0.714031 0.875 0.580584
229 2 0.963615 0.875 0.577726
228 2 0.923838 0.625 0.57702
227 2 0.81685 0.75 0.533733
205 2 0.981363 0.5 0.532491
234 2 0.280747 0.5 0.622585
230 3 0.108333 0.375 0.665982
208 3 0.275 0.125 0.665982
207 2 0.190543 0.25 0.62315
206 2 0.153296 0 0.621776
189 3 0.025 0.125 0.665982
209 3 0.358333 0.375 0.665982
216 3 0.608333 0.375 0.665982
214 2 0.438085 0.25 0.623372
192 3 0.525 0.125 0.665982
195 2 0.697921 0.25 0.623438
188 2 0.885998 8.36248e-17 0.621925
222 2 0.779225 0.5 0.622572
202 2 0.946315 0.25 0.622996
197 3 0.858333 0.375 0.665982
196 3 0.775 0.125 0.665982
247 3 0.275 0.875 0.665982
235 2 0.319807 0.75 0.621831
231 3 0.191667 0.625 0.665982
246 2 0.0712019 0.75 0.621382
225 3 0.025 0.875 0.665982
203 2 0.0302347 0.5 0.6224
242 2 0.580864 0.75 0.622458
237 3 0.525 0.875 0.665982
236 3 0.441667 0.625 0.665982
215 2 0.529908 0.5 0.622718
217 3 0.691667 0.625 0.665982
243 3 0.775 0.875 0.665982
224 3 0.941667 0.625 0.665982
223 2 0.827805 0.75 0.622112
