ITEM: TIMESTEP
615
ITEM: NUMBER OF ATOMS
249
ITEM: BOX BOUNDS pp pp pp
0.0000000000000000e+00 1.1265258452427979e+01
0.0000000000000000e+00 1.0620987524707861e+01
0.0000000000000000e+00 5.1792180038698433e+01
ITEM: ATOMS id type xs ys zs
6 3 0.25 0 0
24 3 0 0 0
25 3 0.0833333 0.25 0
26 1 0.207083 0.125 0.0451027
27 1 0.246952 0.375 0.0435296
52 3 0.166667 0.5 0
7 1 0.454362 0.125 0.0449809
12 3 0.5 0 0
13 3 0.583333 0.25 0
32 3 0.333333 0.25 0
33 3 0.416667 0.5 0
34 1 0.496189 0.375 0.0431115
46 1 0.996393 0.375 0.0437082
2 3 0.75 0 0
3 1 0.963694 0.125 0.0438413
14 1 0.71474 0.125 0.0464069
15 1 0.745363 0.375 0.042978
18 3 0.833333 0.25 0
19 3 0.916667 0.5 0
40 3 0.666667 0.5 0
47 1 0.0878785 0.625 0.0428281
53 3 0.25 0.75 0
62 3 0 0.75 0
63 1 0.124682 0.875 0.0446945
35 1 0.586554 0.625 0.0436127
54 1 0.33651 0.625 0.0432843
55 1 0.373307 0.875 0.0446459
58 3 0.5 0.75 0
59 1 0.616797 0.875 0.0422173
41 3 0.75 0.75 0
42 1 0.838094 0.625 0.0426848
43 1 0.867143 0.875 0.0455213
4 1 0.284781 2.09062e-17 0.0892193
20 1 0.0172838 0 0.0886277
21 1 0.111797 0.25 0.0901238
22 1 0.226664 0.125 0.136785
23 1 0.25558 0.375 0.132899
48 1 0.145916 0.5 0.0875514
44 1 0.00458775 0.375 0.132388
5 1 0.471948 0.125 0.131176
8 1 0.554123 0 0.0877924
9 1 0.604405 0.25 0.0878646
28 1 0.358584 0.25 0.0895181
29 1 0.397214 0.5 0.0876146
30 1 0.506506 0.375 0.133635
36 1 0.645788 0.5 0.0880026
1 1 0.971583 0.125 0.136123
10 1 0.724326 0.125 0.128216
11 1 0.756036 0.375 0.132969
16 1 0.861353 0.25 0.08845
17 1 0.893574 0.5 0.0874824
45 1 0.104128 0.625 0.132864
49 1 0.239007 0.75 0.0886252
61 1 0.117818 0.875 0.130837
31 1 0.605916 0.625 0.132727
50 1 0.355934 0.625 0.132596
51 1 0.367174 0.875 0.136176
56 1 0.483988 0.75 0.0892095
57 1 0.622564 0.875 0.13543
60 1 0.992352 0.75 0.086666
37 1 0.734641 0.75 0.0875759
38 1 0.855763 0.625 0.132631
39 1 0.867781 0.875 0.129908
114 1 0.150695 0.5 0.17733
86 1 0.0750429 0 0.177857
87 1 0.115118 0.25 0.177931
88 1 0.234565 0.125 0.218486
89 1 0.264928 0.375 0.222484
108 1 0.0144701 0.375 0.222835
69 1 0.481188 0.125 0.223908
74 1 0.524474 4.18124e-17 0.177436
75 1 0.624117 0.25 0.177322
94 1 0.370514 0.25 0.177543
95 1 0.399789 0.5 0.177435
96 1 0.514139 0.375 0.221368
102 1 0.652611 0.5 0.177723
65 1 0.798452 0 0.177447
66 1 0.977775 0.125 0.219193
76 1 0.732407 0.125 0.225697
77 1 0.763698 0.375 0.222441
80 1 0.866903 0.25 0.178031
81 1 0.902547 0.5 0.177412
125 1 0.130563 0.875 0.224315
115 1 0.242472 0.75 0.177215
109 1 0.114647 0.625 0.22223
120 1 0.500161 0.75 0.17721
117 1 0.375973 0.875 0.219761
116 1 0.364449 0.625 0.222654
97 1 0.612884 0.625 0.223141
121 1 0.626857 0.875 0.219904
124 1 0.989696 0.75 0.178008
105 1 0.873507 0.875 0.226594
104 1 0.864514 0.625 0.222607
103 1 0.747274 0.75 0.177895
67 1 0.308429 4.18124e-17 0.266466
110 1 0.162231 0.5 0.267287
82 1 0.0393074 0 0.26582
83 1 0.126834 0.25 0.264948
84 1 0.235587 0.125 0.311265
85 1 0.265193 0.375 0.310365
106 1 0.0167784 0.375 0.309996
68 1 0.489934 0.125 0.311753
70 1 0.575997 0 0.266803
71 1 0.617275 0.25 0.266848
90 1 0.372586 0.25 0.265884
91 1 0.412801 0.5 0.267256
92 1 0.514451 0.375 0.310927
98 1 0.661558 0.5 0.267142
64 1 0.992312 0.125 0.312878
72 1 0.752586 0.125 0.303223
73 1 0.767336 0.375 0.311115
78 1 0.879905 0.25 0.265289
79 1 0.909182 0.5 0.267446
123 1 0.136316 0.875 0.308964
111 1 0.254138 0.75 0.267785
107 1 0.118437 0.625 0.313136
122 1 0.00782395 0.75 0.267275
118 1 0.496093 0.75 0.268421
113 1 0.378959 0.875 0.316448
112 1 0.367738 0.625 0.313253
93 1 0.616858 0.625 0.311996
119 1 0.636042 0.875 0.316707
101 1 0.886922 0.875 0.307343
100 1 0.867063 0.625 0.312512
99 1 0.746318 0.75 0.267952
176 2 0.213567 0.5 0.356465
170 2 0.0472669 0.375 0.400261
151 2 0.295471 0.375 0.40052
150 2 0.254902 0.125 0.399419
149 2 0.13617 0.25 0.355745
148 2 0.0964712 0 0.356739
129 2 0.00193151 0.125 0.399824
158 2 0.545327 0.375 0.398942
157 2 0.461883 0.5 0.355947
156 2 0.380841 0.25 0.35521
137 2 0.651099 0.25 0.352119
132 2 0.518203 0.125 0.395169
143 2 0.96151 0.5 0.356118
142 2 0.894116 0.25 0.355183
139 2 0.795976 0.375 0.399071
138 2 0.760018 0.125 0.400366
128 2 0.821583 0 0.354061
187 2 0.158437 0.875 0.402634
177 2 0.251212 0.75 0.357684
171 2 0.113052 0.625 0.40056
186 2 0.00644871 0.75 0.3551
182 2 0.516514 0.75 0.357656
179 2 0.405175 0.875 0.397847
178 2 0.367732 0.625 0.400502
159 2 0.616944 0.625 0.401205
183 2 0.667595 0.875 0.398326
167 2 0.916894 0.875 0.399714
166 2 0.864658 0.625 0.400766
165 2 0.765508 0.75 0.35609
164 2 0.708833 0.5 0.356212
168 2 0.0522292 0.375 0.488398
147 2 0.303364 0.375 0.488243
146 2 0.269295 0.125 0.489228
145 2 0.153777 0.25 0.444512
144 2 0.0601377 0 0.444589
130 2 0.311839 4.18124e-17 0.444779
127 2 0.016476 0.125 0.489356
154 2 0.551612 0.375 0.488706
153 2 0.458597 0.5 0.444863
152 2 0.406186 0.25 0.442722
134 2 0.652759 0.25 0.443314
133 2 0.55714 8.36248e-17 0.44248
131 2 0.517636 0.125 0.488964
126 2 0.80929 0 0.444026
160 2 0.707335 0.5 0.444769
141 2 0.956636 0.5 0.444495
140 2 0.903467 0.25 0.444563
136 2 0.800602 0.375 0.488651
135 2 0.765151 0.125 0.488919
185 2 0.175798 0.875 0.489107
173 2 0.275318 0.75 0.44422
172 2 0.20793 0.5 0.444296
169 2 0.120941 0.625 0.488546
184 2 0.021093 0.75 0.446037
180 2 0.523856 0.75 0.443664
175 2 0.426018 0.875 0.489136
174 2 0.369421 0.625 0.488692
155 2 0.617767 0.625 0.489292
181 2 0.670781 0.875 0.488861
163 2 0.921448 0.875 0.489363
162 2 0.86773 0.625 0.489388
161 2 0.7729 0.75 0.444919
232 2 0.0539048 0.375 0.577057
213 2 0.302231 0.375 0.577284
212 2 0.275606 0.125 0.579525
211 2 0.162587 0.25 0.533257
210 2 0.0689342 0 0.533662
193 2 0.319543 4.18124e-17 0.533607
191 2 0.0223319 0.125 0.578821
220 2 0.552421 0.375 0.577828
219 2 0.455957 0.5 0.532615
218 2 0.412679 0.25 0.534497
199 2 0.660392 0.25 0.533944
198 2 0.565484 8.36248e-17 0.535105
194 2 0.534535 0.125 0.581613
226 2 0.706222 0.5 0.533101
204 2 0.911499 0.25 0.532885
201 2 0.804009 0.375 0.577718
200 2 0.778535 0.125 0.577971
190 2 0.816026 0 0.53375
249 2 0.178246 0.875 0.576279
239 2 0.293188 0.75 0.533945
238 2 0.20705 0.5 0.532434
233 2 0.14487 0.625 0.577331
248 2 0.0395214 0.75 0.532198
244 2 0.541465 0.75 0.535022
241 2 0.424828 0.875 0.580894
240 2 0.396732 0.625 0.577995
221 2 0.64501 0.625 0.57771
245 2 0.685453 0.875 0.580442
229 2 0.935318 0.875 0.577988
228 2 0.893442 0.625 0.576972
227 2 0.788602 0.75 0.533682
205 2 0.957246 0.5 0.53274
234 2 0.249358 0.5 0.622513
230 3 0.075 0.375 0.665982
209 3 0.325 0.375 0.665982
208 3 0.241667 0.125 0.665982
207 2 0.159704 0.25 0.623193
206 2 0.121384 0 0.621688
216 3 0.575 0.375 0.665982
214 2 0.407244 0.25 0.623429
192 3 0.491667 0.125 0.665982
195 2 0.667094 0.25 0.62341
188 2 0.854053 8.36248e-17 0.621959
222 2 0.747741 0.5 0.622498
202 2 0.915469 0.25 0.622982
197 3 0.825 0.375 0.665982
196 3 0.741667 0.125 0.665982
189 3 0.991667 0.125 0.665982
247 3 0.241667 0.875 0.665982
235 2 0.289267 0.75 0.621921
231 3 0.158333 0.625 0.665982
246 2 0.0407509 0.75 0.621479
242 2 0.550615 0.75 0.622611
237 3 0.491667 0.875 0.665982
236 3 0.408333 0.625 0.665982
217 3 0.658333 0.625 0.665982
215 2 0.498421 0.5 0.622662
243 3 0.741667 0.875 0.665982
225 3 0.991667 0.875 0.665982
224 3 0.908333 0.625 0.665982
223 2 0.797398 0.75 0.622251
203 2 0.998847 0.5 0.622314
