ITEM: TIMESTEP
1035
ITEM: NUMBER OF ATOMS
249
ITEM: BOX BOUNDS pp pp pp
0.0000000000000000e+00 1.1265258452427979e+01
0.0000000000000000e+00 1.0620987524707861e+01
0.0000000000000000e+00 5.1792180038698433e+01
ITEM: ATOMS id type xs ys zs
6 3 0.25 0 0
24 3 0 0 0
25 3 0.0833333 0.25 0
26 1 0.210288 0.125 0.0452204
27 1 0.253162 0.375 0.0435311
52 3 0.166667 0.5 0
46 1 0.00268739 0.375 0.04362
7 1 0.458548 0.125 0.0450539
12 3 0.5 0 0
13 3 0.583333 0.25 0
32 3 0.333333 0.25 0
33 3 0.416667 0.5 0
34 1 0.502352 0.375 0.0430713
2 3 0.75 0 0
3 1 0.966697 0.125 0.0438858
14 1 0.71734 0.125 0.0465964
15 1 0.751382 0.375 0.0429713
18 3 0.833333 0.25 0
19 3 0.916667 0.5 0
40 3 0.666667 0.5 0
47 1 0.0887445 0.625 0.0429711
53 3 0.25 0.75 0
62 3 0 0.75 0
63 1 0.128544 0.875 0.044527
35 1 0.587912 0.625 0.0439311
54 1 0.33732 0.625 0.0434623
55 1 0.377242 0.875 0.0445905
58 3 0.5 0.75 0
59 1 0.621036 0.875 0.0424922
41 3 0.75 0.75 0
42 1 0.839177 0.625 0.0429624
43 1 0.87105 0.875 0.0456112
4 1 0.289278 2.09062e-17 0.0887023
20 1 0.0257627 0 0.0882749
21 1 0.120475 0.25 0.0899045
22 1 0.241643 0.125 0.136125
23 1 0.26953 0.375 0.132655
48 1 0.157309 0.5 0.0873595
44 1 0.0183412 0.375 0.132384
5 1 0.486261 0.125 0.132519
8 1 0.554506 0 0.0886951
9 1 0.613027 0.25 0.0880495
28 1 0.368351 0.25 0.0894064
29 1 0.409011 0.5 0.087232
30 1 0.52056 0.375 0.13331
36 1 0.658142 0.5 0.0877207
1 1 0.985902 0.125 0.135827
10 1 0.737622 0.125 0.12751
11 1 0.7704 0.375 0.133068
16 1 0.871157 0.25 0.088157
17 1 0.905276 0.5 0.0873994
45 1 0.116526 0.625 0.132923
49 1 0.250309 0.75 0.0887249
61 1 0.132156 0.875 0.130796
60 1 0.0029221 0.75 0.08672
31 1 0.618632 0.625 0.132587
50 1 0.36894 0.625 0.132364
51 1 0.384098 0.875 0.135626
56 1 0.495474 0.75 0.0891857
57 1 0.639756 0.875 0.135338
37 1 0.745993 0.75 0.0875721
38 1 0.867949 0.625 0.132709
39 1 0.884376 0.875 0.130299
114 1 0.170441 0.5 0.177068
86 1 0.0932962 0 0.177519
87 1 0.13412 0.25 0.177618
88 1 0.256862 0.125 0.217877
89 1 0.286813 0.375 0.222544
108 1 0.0367272 0.375 0.222483
69 1 0.503683 0.125 0.223918
74 1 0.543237 4.18124e-17 0.177377
75 1 0.643191 0.25 0.177226
94 1 0.388441 0.25 0.177625
95 1 0.41931 0.5 0.176942
96 1 0.535712 0.375 0.221323
102 1 0.671702 0.5 0.177345
65 1 0.81658 0 0.177289
66 1 1.00043 0.125 0.219285
76 1 0.753479 0.125 0.226203
77 1 0.785104 0.375 0.222123
80 1 0.886026 0.25 0.178279
81 1 0.921998 0.5 0.177198
125 1 0.153342 0.875 0.223223
115 1 0.261671 0.75 0.176477
109 1 0.135009 0.625 0.221992
124 1 0.00762431 0.75 0.177981
120 1 0.518667 0.75 0.176751
117 1 0.398393 0.875 0.219317
116 1 0.383826 0.625 0.222084
97 1 0.632584 0.625 0.222946
121 1 0.649255 0.875 0.219854
105 1 0.895621 0.875 0.226622
104 1 0.88387 0.625 0.222586
103 1 0.765348 0.75 0.177827
67 1 0.325998 4.18124e-17 0.264792
110 1 0.191601 0.5 0.266701
82 1 0.0654412 0 0.264823
83 1 0.159912 0.25 0.264675
84 1 0.275931 0.125 0.310964
85 1 0.299615 0.375 0.310324
106 1 0.050416 0.375 0.309549
64 1 0.0303084 0.125 0.312033
68 1 0.528133 0.125 0.314301
70 1 0.590434 0 0.268344
71 1 0.648091 0.25 0.267382
90 1 0.406732 0.25 0.266966
91 1 0.442708 0.5 0.266418
92 1 0.549664 0.375 0.311134
98 1 0.691792 0.5 0.26634
72 1 0.786871 0.125 0.302552
73 1 0.802137 0.375 0.31077
78 1 0.912496 0.25 0.264649
79 1 0.939089 0.5 0.266752
123 1 0.17194 0.875 0.308666
111 1 0.282253 0.75 0.267018
107 1 0.152607 0.625 0.312607
122 1 0.0360078 0.75 0.266577
118 1 0.524068 0.75 0.266864
113 1 0.418307 0.875 0.313749
112 1 0.402682 0.625 0.312546
93 1 0.650278 0.625 0.311432
119 1 0.67549 0.875 0.317348
101 1 0.92505 0.875 0.30748
100 1 0.900958 0.625 0.312072
99 1 0.772722 0.75 0.268098
176 2 0.253343 0.5 0.356401
170 2 0.0888039 0.375 0.39967
150 2 0.297721 0.125 0.399659
149 2 0.17542 0.25 0.355063
148 2 0.13837 0 0.356728
129 2 0.0460214 0.125 0.399884
143 2 0.00141977 0.5 0.355867
151 2 0.336078 0.375 0.400468
158 2 0.586596 0.375 0.39861
157 2 0.501057 0.5 0.355971
156 2 0.41902 0.25 0.355754
132 2 0.562187 0.125 0.394986
137 2 0.691805 0.25 0.352159
142 2 0.934106 0.25 0.354784
139 2 0.837213 0.375 0.398639
138 2 0.804172 0.125 0.400317
128 2 0.862751 0 0.353693
187 2 0.203539 0.875 0.402592
177 2 0.29157 0.75 0.356738
171 2 0.15815 0.625 0.400147
186 2 0.0452473 0.75 0.354792
182 2 0.554113 0.75 0.357002
179 2 0.449576 0.875 0.397925
178 2 0.411881 0.625 0.400459
159 2 0.661432 0.625 0.40088
183 2 0.711766 0.875 0.398226
167 2 0.961565 0.875 0.399424
166 2 0.909497 0.625 0.400548
165 2 0.804449 0.75 0.355777
164 2 0.748475 0.5 0.355941
168 2 0.102936 0.375 0.488244
146 2 0.318982 0.125 0.489336
145 2 0.200285 0.25 0.444627
144 2 0.107822 0 0.444407
127 2 0.0658409 0.125 0.489369
141 2 0.00548233 0.5 0.444031
147 2 0.354972 0.375 0.487808
130 2 0.359426 4.18124e-17 0.444765
154 2 0.603025 0.375 0.488315
153 2 0.507239 0.5 0.44443
152 2 0.453398 0.25 0.442553
133 2 0.60492 8.36248e-17 0.442531
131 2 0.567314 0.125 0.489089
134 2 0.699915 0.25 0.443206
126 2 0.857232 0 0.443874
160 2 0.755905 0.5 0.444403
140 2 0.950618 0.25 0.444325
136 2 0.852164 0.375 0.488195
135 2 0.814941 0.125 0.488927
185 2 0.226745 0.875 0.489059
173 2 0.321981 0.75 0.444332
172 2 0.255684 0.5 0.444126
169 2 0.167157 0.625 0.488236
184 2 0.0679727 0.75 0.44581
180 2 0.570567 0.75 0.443678
175 2 0.477355 0.875 0.489272
174 2 0.416052 0.625 0.488394
155 2 0.664427 0.625 0.489065
181 2 0.721902 0.875 0.488836
163 2 0.972261 0.875 0.489296
162 2 0.914858 0.625 0.488992
161 2 0.819478 0.75 0.444775
232 2 0.111375 0.375 0.576898
211 2 0.217423 0.25 0.53307
210 2 0.123588 0 0.533297
191 2 0.0811576 0.125 0.578822
212 2 0.333794 0.125 0.579286
213 2 0.3599 0.375 0.577151
193 2 0.374576 4.18124e-17 0.533432
220 2 0.610468 0.375 0.577646
219 2 0.506743 0.5 0.532236
218 2 0.46753 0.25 0.534277
198 2 0.620664 8.36248e-17 0.535023
194 2 0.592074 0.125 0.581359
199 2 0.715378 0.25 0.533721
226 2 0.757131 0.5 0.532562
204 2 0.966024 0.25 0.532902
201 2 0.861406 0.375 0.577599
200 2 0.836763 0.125 0.5781
190 2 0.870382 0 0.533611
249 2 0.235499 0.875 0.576132
238 2 0.257651 0.5 0.531985
233 2 0.205653 0.625 0.577383
248 2 0.0966162 0.75 0.532185
205 2 0.00748249 0.5 0.532352
239 2 0.350312 0.75 0.533959
244 2 0.598648 0.75 0.535205
241 2 0.481942 0.875 0.580925
240 2 0.457255 0.625 0.577974
221 2 0.705823 0.625 0.577623
245 2 0.743486 0.875 0.580588
229 2 0.992598 0.875 0.577451
228 2 0.954247 0.625 0.577108
227 2 0.845675 0.75 0.53362
234 2 0.312519 0.5 0.622642
230 3 0.141667 0.375 0.665982
208 3 0.308333 0.125 0.665982
207 2 0.221633 0.25 0.623083
206 2 0.185519 0 0.621846
189 3 0.0583333 0.125 0.665982
209 3 0.391667 0.375 0.665982
216 3 0.641667 0.375 0.665982
214 2 0.469184 0.25 0.62329
192 3 0.558333 0.125 0.665982
195 2 0.729079 0.25 0.623438
188 2 0.918145 8.36248e-17 0.621883
222 2 0.811021 0.5 0.62265
202 2 0.977499 0.25 0.622977
197 3 0.891667 0.375 0.665982
196 3 0.808333 0.125 0.665982
247 3 0.308333 0.875 0.665982
231 3 0.225 0.625 0.665982
246 2 0.101977 0.75 0.621286
225 3 0.0583333 0.875 0.665982
203 2 0.0620165 0.5 0.62246
235 2 0.350659 0.75 0.621746
242 2 0.611495 0.75 0.622287
237 3 0.558333 0.875 0.665982
236 3 0.475 0.625 0.665982
215 2 0.561797 0.5 0.622739
217 3 0.725 0.625 0.665982
243 3 0.808333 0.875 0.665982
224 3 0.975 0.625 0.665982
223 2 0.858506 0.75 0.621987
