ITEM: TIMESTEP
535
ITEM: NUMBER OF ATOMS
249
ITEM: BOX BOUNDS pp pp pp
0.0000000000000000e+00 1.1265258452427979e+01
0.0000000000000000e+00 1.0620987524707861e+01
0.0000000000000000e+00 5.1792180038698433e+01
ITEM: ATOMS id type xs ys zs
6 3 0.25 0 0
24 3 0 0 0
25 3 0.0833333 0.25 0
26 1 0.20646 0.125 0.0450306
27 1 0.245259 0.375 0.0435614
52 3 0.166667 0.5 0
7 1 0.453292 0.125 0.0449155
12 3 0.5 0 0
13 3 0.583333 0.25 0
32 3 0.333333 0.25 0
33 3 0.416667 0.5 0
34 1 0.49457 0.375 0.0431424
46 1 0.994639 0.375 0.0437576
2 3 0.75 0 0
3 1 0.963121 0.125 0.0438451
14 1 0.713869 0.125 0.0464514
15 1 0.743782 0.375 0.0429969
18 3 0.833333 0.25 0
19 3 0.916667 0.5 0
40 3 0.666667 0.5 0
47 1 0.0871506 0.625 0.0427893
53 3 0.25 0.75 0
62 3 0 0.75 0
63 1 0.123685 0.875 0.0447254
35 1 0.585745 0.625 0.0435391
54 1 0.335794 0.625 0.0432307
55 1 0.372542 0.875 0.0446911
58 3 0.5 0.75 0
59 1 0.616026 0.875 0.0422092
41 3 0.75 0.75 0
42 1 0.837337 0.625 0.0426393
43 1 0.866344 0.875 0.0454321
4 1 0.281932 2.09062e-17 0.0893024
20 1 0.0141161 0 0.0887786
21 1 0.109568 0.25 0.0901907
22 1 0.223275 0.125 0.136913
23 1 0.252149 0.375 0.132933
48 1 0.143169 0.5 0.0875946
5 1 0.468572 0.125 0.1311
8 1 0.551706 0 0.0877044
9 1 0.602135 0.25 0.0878538
28 1 0.356323 0.25 0.0895527
29 1 0.394404 0.5 0.0876896
30 1 0.50311 0.375 0.133685
36 1 0.642978 0.5 0.0880504
44 1 1.00114 0.375 0.132381
1 1 0.967984 0.125 0.136163
10 1 0.720707 0.125 0.128351
11 1 0.752499 0.375 0.13297
16 1 0.858827 0.25 0.0885366
17 1 0.890849 0.5 0.0875178
45 1 0.100833 0.625 0.132859
49 1 0.236416 0.75 0.0886024
61 1 0.114337 0.875 0.130891
31 1 0.602534 0.625 0.132745
50 1 0.352536 0.625 0.132634
51 1 0.363613 0.875 0.136168
56 1 0.481417 0.75 0.0891821
57 1 0.618752 0.875 0.135457
60 1 0.98976 0.75 0.0866883
37 1 0.732004 0.75 0.0875854
38 1 0.852469 0.625 0.132635
39 1 0.863968 0.875 0.129934
114 1 0.14595 0.5 0.177393
86 1 0.0706516 0 0.177865
87 1 0.110495 0.25 0.177926
88 1 0.2293 0.125 0.218471
89 1 0.259501 0.375 0.222465
108 1 0.00888484 0.375 0.222875
69 1 0.475702 0.125 0.223931
74 1 0.520135 4.18124e-17 0.177483
75 1 0.619479 0.25 0.177399
94 1 0.366152 0.25 0.177539
95 1 0.395111 0.5 0.177518
96 1 0.50875 0.375 0.221414
102 1 0.648004 0.5 0.177796
65 1 0.794104 0 0.177501
66 1 0.972511 0.125 0.219123
76 1 0.727206 0.125 0.225744
77 1 0.758401 0.375 0.222497
80 1 0.862166 0.25 0.177955
81 1 0.897862 0.5 0.177482
125 1 0.124959 0.875 0.22446
115 1 0.237882 0.75 0.177318
109 1 0.109342 0.625 0.222277
120 1 0.495646 0.75 0.177301
117 1 0.370576 0.875 0.219751
116 1 0.359279 0.625 0.22272
97 1 0.607719 0.625 0.223172
121 1 0.621638 0.875 0.219937
124 1 0.985201 0.75 0.178049
105 1 0.86817 0.875 0.226607
104 1 0.859251 0.625 0.222656
103 1 0.742764 0.75 0.177933
67 1 0.302873 4.18124e-17 0.266543
110 1 0.155536 0.5 0.267386
82 1 0.032993 0 0.265986
83 1 0.119975 0.25 0.264883
84 1 0.227413 0.125 0.311121
85 1 0.25756 0.375 0.310412
106 1 0.00945403 0.375 0.310061
68 1 0.481961 0.125 0.31151
70 1 0.570461 0 0.266752
71 1 0.610547 0.25 0.266804
90 1 0.365603 0.25 0.265797
91 1 0.406038 0.5 0.267377
92 1 0.506808 0.375 0.310952
98 1 0.65481 0.5 0.267258
64 1 0.984399 0.125 0.312991
72 1 0.744912 0.125 0.303419
73 1 0.75961 0.375 0.311179
78 1 0.873049 0.25 0.265433
79 1 0.902439 0.5 0.267574
123 1 0.128976 0.875 0.309008
111 1 0.247745 0.75 0.267849
107 1 0.110723 0.625 0.313214
118 1 0.489768 0.75 0.268489
113 1 0.371444 0.875 0.316524
112 1 0.359986 0.625 0.313304
93 1 0.609128 0.625 0.312056
119 1 0.628258 0.875 0.316739
122 1 1.00133 0.75 0.267406
101 1 0.879266 0.875 0.307406
100 1 0.859453 0.625 0.312595
99 1 0.740023 0.75 0.268008
176 2 0.204699 0.5 0.356487
170 2 0.0375289 0.375 0.400346
151 2 0.28584 0.375 0.400591
150 2 0.244844 0.125 0.399508
149 2 0.12713 0.25 0.35587
148 2 0.0885149 0 0.356627
158 2 0.535727 0.375 0.399028
157 2 0.453107 0.5 0.355964
156 2 0.371781 0.25 0.355186
137 2 0.641765 0.25 0.352205
132 2 0.507797 0.125 0.395246
143 2 0.952647 0.5 0.356143
142 2 0.884814 0.25 0.355161
139 2 0.786449 0.375 0.399125
138 2 0.749617 0.125 0.400413
129 2 0.991676 0.125 0.399653
128 2 0.813709 0 0.354257
187 2 0.147919 0.875 0.402559
177 2 0.242859 0.75 0.357709
171 2 0.103109 0.625 0.400609
186 2 -0.00205642 0.75 0.355237
182 2 0.507864 0.75 0.357781
179 2 0.394727 0.875 0.397843
178 2 0.35766 0.625 0.400556
159 2 0.606916 0.625 0.40126
183 2 0.657331 0.875 0.398288
167 2 0.906406 0.875 0.399873
166 2 0.854638 0.625 0.400844
165 2 0.756916 0.75 0.356167
164 2 0.699965 0.5 0.356237
168 2 0.0402955 0.375 0.488511
147 2 0.291308 0.375 0.488367
146 2 0.257463 0.125 0.489179
145 2 0.142789 0.25 0.444487
144 2 0.0492672 0 0.444553
130 2 0.300903 4.18124e-17 0.444799
127 2 0.00476617 0.125 0.489307
154 2 0.539632 0.375 0.488818
153 2 0.447391 0.5 0.444962
152 2 0.395262 0.25 0.442795
134 2 0.641825 0.25 0.443343
133 2 0.54621 8.36248e-17 0.44247
131 2 0.505882 0.125 0.488932
126 2 0.798266 0 0.444068
160 2 0.696169 0.5 0.444833
141 2 0.945529 0.5 0.444605
140 2 0.892617 0.25 0.444579
136 2 0.788606 0.375 0.488759
135 2 0.753383 0.125 0.488902
185 2 0.163633 0.875 0.489121
173 2 0.264341 0.75 0.444224
172 2 0.196782 0.5 0.444415
169 2 0.110218 0.625 0.488707
184 2 0.0103807 0.75 0.446073
180 2 0.513021 0.75 0.443633
175 2 0.413861 0.875 0.489088
174 2 0.358752 0.625 0.488758
155 2 0.607024 0.625 0.489308
181 2 0.658681 0.875 0.488864
163 2 0.909544 0.875 0.489328
162 2 0.856844 0.625 0.489418
161 2 0.761984 0.75 0.44495
232 2 0.0400838 0.375 0.577106
213 2 0.288359 0.375 0.577339
212 2 0.261289 0.125 0.579561
211 2 0.149387 0.25 0.533294
210 2 0.0559067 0 0.533725
193 2 0.306426 4.18124e-17 0.533624
191 2 0.00788474 0.125 0.578779
220 2 0.538409 0.375 0.577871
219 2 0.444585 0.5 0.532728
218 2 0.399489 0.25 0.534548
199 2 0.647206 0.25 0.534005
198 2 0.55236 8.36248e-17 0.535109
194 2 0.520405 0.125 0.581668
226 2 0.69478 0.5 0.533221
204 2 0.898348 0.25 0.532893
201 2 0.790156 0.375 0.577774
200 2 0.764225 0.125 0.577911
190 2 0.803145 0 0.533762
249 2 0.164227 0.875 0.576307
239 2 0.278931 0.75 0.533899
238 2 0.195793 0.5 0.532604
233 2 0.129471 0.625 0.577293
248 2 0.0253008 0.75 0.532258
244 2 0.527217 0.75 0.534919
241 2 0.410862 0.875 0.58082
240 2 0.381391 0.625 0.577955
221 2 0.629617 0.625 0.577663
245 2 0.671264 0.875 0.580335
229 2 0.921237 0.875 0.578106
228 2 0.877981 0.625 0.576938
227 2 0.774502 0.75 0.53363
205 2 0.945874 0.5 0.532876
234 2 0.233678 0.5 0.622474
230 3 0.0583333 0.375 0.665982
209 3 0.308333 0.375 0.665982
208 3 0.225 0.125 0.665982
207 2 0.144322 0.25 0.623204
206 2 0.105444 0 0.621648
216 3 0.558333 0.375 0.665982
214 2 0.391852 0.25 0.623451
195 2 0.651738 0.25 0.623388
192 3 0.475 0.125 0.665982
188 2 0.838044 8.36248e-17 0.62198
222 2 0.731995 0.5 0.62246
202 2 0.9001 0.25 0.622963
197 3 0.808333 0.375 0.665982
196 3 0.725 0.125 0.665982
189 3 0.975 0.125 0.665982
247 3 0.225 0.875 0.665982
235 2 0.273885 0.75 0.621954
231 3 0.141667 0.625 0.665982
246 2 0.0253951 0.75 0.621518
242 2 0.535381 0.75 0.622665
237 3 0.475 0.875 0.665982
236 3 0.391667 0.625 0.665982
217 3 0.641667 0.625 0.665982
215 2 0.482698 0.5 0.622626
243 3 0.725 0.875 0.665982
225 3 0.975 0.875 0.665982
224 3 0.891667 0.625 0.665982
223 2 0.782058 0.75 0.622301
203 2 0.983156 0.5 0.62227
