ITEM: TIMESTEP
1563
ITEM: NUMBER OF ATOMS
249
ITEM: BOX BOUNDS pp pp pp
0.0000000000000000e+00 1.1265258452427979e+01
0.0000000000000000e+00 1.0620987524707861e+01
0.0000000000000000e+00 5.1792180038698433e+01
ITEM: ATOMS id type xs ys zs
6 3 0.25 0 0
24 3 0 0 0
25 3 0.0833333 0.25 0
26 1 0.213509 0.125 0.0452824
27 1 0.260848 0.375 0.0437057
52 3 0.166667 0.5 0
46 1 0.0107585 0.375 0.0437565
7 1 0.462797 0.125 0.0450754
12 3 0.5 0 0
13 3 0.583333 0.25 0
32 3 0.333333 0.25 0
33 3 0.416667 0.5 0
34 1 0.510002 0.375 0.0431554
2 3 0.75 0 0
3 1 0.969522 0.125 0.0438674
14 1 0.720323 0.125 0.0466705
15 1 0.758957 0.375 0.0431314
18 3 0.833333 0.25 0
19 3 0.916667 0.5 0
40 3 0.666667 0.5 0
47 1 0.0852867 0.625 0.0430596
53 3 0.25 0.75 0
62 3 0 0.75 0
63 1 0.133667 0.875 0.0443997
35 1 0.586054 0.625 0.0441244
54 1 0.334115 0.625 0.0436001
55 1 0.381877 0.875 0.0445826
58 3 0.5 0.75 0
59 1 0.625909 0.875 0.0428107
41 3 0.75 0.75 0
42 1 0.836439 0.625 0.0431008
43 1 0.875629 0.875 0.0457512
4 1 0.295985 2.09062e-17 0.088342
20 1 0.0350002 0 0.0877899
21 1 0.129958 0.25 0.0897425
22 1 0.256365 0.125 0.135478
23 1 0.284361 0.375 0.132416
48 1 0.168821 0.5 0.0874416
44 1 0.0326118 0.375 0.132277
5 1 0.499998 0.125 0.133453
8 1 0.558062 0 0.0893906
9 1 0.621777 0.25 0.088154
28 1 0.378317 0.25 0.0892191
29 1 0.420736 0.5 0.0870653
30 1 0.534852 0.375 0.13311
36 1 0.670464 0.5 0.0875591
1 1 1.00046 0.125 0.135336
10 1 0.750956 0.125 0.126843
11 1 0.785041 0.375 0.132959
16 1 0.881219 0.25 0.0878217
17 1 0.917338 0.5 0.0874075
45 1 0.125962 0.625 0.133494
49 1 0.261968 0.75 0.0891392
61 1 0.147965 0.875 0.13103
60 1 0.0144858 0.75 0.0872595
31 1 0.628301 0.625 0.13261
50 1 0.379086 0.625 0.132382
51 1 0.400994 0.875 0.135218
56 1 0.50742 0.75 0.0892785
57 1 0.656666 0.875 0.135174
37 1 0.757879 0.75 0.0877254
38 1 0.877212 0.625 0.133044
39 1 0.901619 0.875 0.130601
114 1 0.195674 0.5 0.176648
86 1 0.110951 0 0.1773
87 1 0.153477 0.25 0.177113
88 1 0.27505 0.125 0.218139
89 1 0.311473 0.375 0.222497
108 1 0.0624968 0.375 0.221642
66 1 0.0202075 0.125 0.218917
69 1 0.526159 0.125 0.223735
74 1 0.561448 4.18124e-17 0.177288
75 1 0.662089 0.25 0.176808
94 1 0.405275 0.25 0.177872
95 1 0.443503 0.5 0.176493
96 1 0.559788 0.375 0.220903
102 1 0.695048 0.5 0.176881
65 1 0.83429 0 0.176988
76 1 0.775068 0.125 0.225542
77 1 0.809233 0.375 0.221461
80 1 0.905263 0.25 0.177965
81 1 0.945706 0.5 0.176817
125 1 0.18027 0.875 0.2218
115 1 0.28226 0.75 0.175846
109 1 0.155671 0.625 0.22153
124 1 0.0257547 0.75 0.17807
120 1 0.537513 0.75 0.176616
117 1 0.422595 0.875 0.219158
116 1 0.403918 0.625 0.221765
97 1 0.653455 0.625 0.222881
121 1 0.673011 0.875 0.219906
105 1 0.920011 0.875 0.226932
104 1 0.903935 0.625 0.222472
103 1 0.783848 0.75 0.177766
110 1 0.225238 0.5 0.265894
82 1 0.100582 0 0.263444
83 1 0.192446 0.25 0.264847
84 1 0.313531 0.125 0.310955
85 1 0.335111 0.375 0.309996
106 1 0.0847104 0.375 0.309033
64 1 0.0669922 0.125 0.311215
67 1 0.357654 4.18124e-17 0.264552
68 1 0.565692 0.125 0.314925
70 1 0.620667 0 0.268719
90 1 0.438801 0.25 0.267399
91 1 0.477227 0.5 0.265558
92 1 0.585342 0.375 0.310717
71 1 0.679108 0.25 0.267038
98 1 0.726903 0.5 0.265545
72 1 0.823003 0.125 0.301355
73 1 0.837628 0.375 0.309895
78 1 0.945602 0.25 0.263504
79 1 0.974046 0.5 0.265739
123 1 0.207816 0.875 0.308338
111 1 0.310724 0.75 0.266351
107 1 0.187534 0.625 0.31183
122 1 0.0658086 0.75 0.265613
118 1 0.552281 0.75 0.266015
113 1 0.455533 0.875 0.312695
112 1 0.438115 0.625 0.311712
93 1 0.685046 0.625 0.31074
119 1 0.712977 0.875 0.317424
101 1 0.96188 0.875 0.306607
100 1 0.935928 0.625 0.31125
99 1 0.799771 0.75 0.268164
176 2 0.293228 0.5 0.355968
170 2 0.12533 0.375 0.399001
149 2 0.215047 0.25 0.354278
148 2 0.17703 0 0.356608
129 2 0.0916032 0.125 0.399954
143 2 0.0411243 0.5 0.35554
150 2 0.34276 0.125 0.398823
151 2 0.371899 0.375 0.399806
158 2 0.62367 0.375 0.39808
157 2 0.540821 0.5 0.35559
156 2 0.458469 0.25 0.355632
132 2 0.607911 0.125 0.39441
137 2 0.732592 0.25 0.351516
142 2 0.974418 0.25 0.354244
139 2 0.874021 0.375 0.398156
138 2 0.850129 0.125 0.399756
128 2 0.901645 0 0.352803
187 2 0.249369 0.875 0.402341
171 2 0.205352 0.625 0.39954
186 2 0.084307 0.75 0.353945
167 2 0.00656115 0.875 0.39894
177 2 0.331335 0.75 0.3561
182 2 0.593145 0.75 0.356343
179 2 0.494822 0.875 0.397556
178 2 0.458773 0.625 0.400059
159 2 0.709057 0.625 0.400349
183 2 0.756245 0.875 0.397794
166 2 0.957268 0.625 0.400071
165 2 0.844325 0.75 0.355087
164 2 0.788476 0.5 0.355459
168 2 0.155213 0.375 0.487819
145 2 0.246609 0.25 0.444276
144 2 0.156402 0 0.444056
127 2 0.11589 0.125 0.489049
141 2 0.0618043 0.5 0.443857
146 2 0.369392 0.125 0.488988
147 2 0.407971 0.375 0.487177
130 2 0.408085 4.18124e-17 0.444176
154 2 0.655846 0.375 0.487708
153 2 0.563428 0.5 0.444107
152 2 0.499701 0.25 0.441923
133 2 0.65379 8.36248e-17 0.442161
131 2 0.617425 0.125 0.488812
134 2 0.746203 0.25 0.442864
126 2 0.905997 0 0.44333
160 2 0.812076 0.5 0.44419
140 2 0.996382 0.25 0.443983
136 2 0.904905 0.375 0.487742
135 2 0.865182 0.125 0.488659
185 2 0.278347 0.875 0.488552
172 2 0.311734 0.5 0.444142
169 2 0.21846 0.625 0.487991
184 2 0.114979 0.75 0.445405
163 2 0.0232556 0.875 0.488929
173 2 0.368747 0.75 0.443969
180 2 0.617163 0.75 0.443312
175 2 0.528861 0.875 0.488947
174 2 0.467752 0.625 0.488204
155 2 0.716035 0.625 0.488925
181 2 0.773226 0.875 0.488406
162 2 0.9666 0.625 0.48871
161 2 0.866263 0.75 0.444385
232 2 0.16899 0.375 0.576706
211 2 0.272769 0.25 0.532618
210 2 0.179349 0 0.532493
191 2 0.139846 0.125 0.578383
204 2 0.0212017 0.25 0.532688
212 2 0.391583 0.125 0.578633
213 2 0.417585 0.375 0.576905
193 2 0.430378 4.18124e-17 0.532806
219 2 0.559598 0.5 0.531827
218 2 0.522938 0.25 0.533771
194 2 0.649241 0.125 0.580652
220 2 0.668495 0.375 0.577398
198 2 0.676836 8.36248e-17 0.534449
199 2 0.770815 0.25 0.533292
226 2 0.809932 0.5 0.532069
201 2 0.919024 0.375 0.577395
200 2 0.894814 0.125 0.57786
190 2 0.925741 0 0.533086
249 2 0.291868 0.875 0.575784
238 2 0.31038 0.5 0.531537
233 2 0.266042 0.625 0.577367
248 2 0.151862 0.75 0.531979
205 2 0.0600536 0.5 0.531977
229 2 0.0491131 0.875 0.576452
228 2 0.0147296 0.625 0.57718
239 2 0.405037 0.75 0.533705
244 2 0.653523 0.75 0.535048
241 2 0.538632 0.875 0.580444
240 2 0.517468 0.625 0.577854
221 2 0.766272 0.625 0.577462
245 2 0.801161 0.875 0.580326
227 2 0.900443 0.75 0.533263
230 3 0.208333 0.375 0.665982
207 2 0.282129 0.25 0.622766
206 2 0.250498 0 0.621952
189 3 0.125 0.125 0.665982
202 2 0.0385392 0.25 0.622806
208 3 0.375 0.125 0.665982
234 2 0.376187 0.5 0.622723
209 3 0.458333 0.375 0.665982
214 2 0.529759 0.25 0.622942
192 3 0.625 0.125 0.665982
216 3 0.708333 0.375 0.665982
195 2 0.790268 0.25 0.623295
188 2 0.983153 8.36248e-17 0.62163
222 2 0.874975 0.5 0.62275
197 3 0.958333 0.375 0.665982
196 3 0.875 0.125 0.665982
231 3 0.291667 0.625 0.665982
246 2 0.162971 0.75 0.621065
225 3 0.125 0.875 0.665982
203 2 0.12568 0.5 0.622579
224 3 0.0416667 0.625 0.665982
247 3 0.375 0.875 0.665982
235 2 0.411932 0.75 0.621533
237 3 0.625 0.875 0.665982
236 3 0.541667 0.625 0.665982
215 2 0.625816 0.5 0.6228
242 2 0.672189 0.75 0.621926
217 3 0.791667 0.625 0.665982
243 3 0.875 0.875 0.665982
223 2 0.919545 0.75 0.621665
