ITEM: TIMESTEP
1681
ITEM: NUMBER OF ATOMS
249
ITEM: BOX BOUNDS pp pp pp
0.0000000000000000e+00 1.1265258452427979e+01
0.0000000000000000e+00 1.0620987524707861e+01
0.0000000000000000e+00 5.1792180038698433e+01
ITEM: ATOMS id type xs ys zs
6 3 0.25 0 0
24 3 0 0 0
25 3 0.0833333 0.25 0
26 1 0.214359 0.125 0.0452893
27 1 0.263709 0.375 0.0438211
52 3 0.166667 0.5 0
46 1 0.0137862 0.375 0.0438644
7 1 0.463915 0.125 0.0450776
12 3 0.5 0 0
13 3 0.583333 0.25 0
32 3 0.333333 0.25 0
33 3 0.416667 0.5 0
34 1 0.512832 0.375 0.0432369
2 3 0.75 0 0
3 1 0.970239 0.125 0.0438551
14 1 0.721248 0.125 0.0466412
15 1 0.761805 0.375 0.0432172
18 3 0.833333 0.25 0
19 3 0.916667 0.5 0
40 3 0.666667 0.5 0
47 1 0.0832434 0.625 0.0430726
53 3 0.25 0.75 0
62 3 0 0.75 0
63 1 0.135293 0.875 0.0443812
54 1 0.332204 0.625 0.0436117
35 1 0.584465 0.625 0.0440953
55 1 0.383299 0.875 0.0445666
58 3 0.5 0.75 0
59 1 0.627392 0.875 0.0429051
41 3 0.75 0.75 0
42 1 0.834562 0.625 0.0430531
43 1 0.877024 0.875 0.0458089
4 1 0.298251 2.09062e-17 0.0882907
20 1 0.0374172 0 0.0876746
21 1 0.132625 0.25 0.0897331
22 1 0.259981 0.125 0.135348
23 1 0.288197 0.375 0.132379
48 1 0.171549 0.5 0.0875756
44 1 0.0361425 0.375 0.132234
1 1 0.00408905 0.125 0.135196
5 1 0.503348 0.125 0.133582
8 1 0.560129 0 0.0894938
9 1 0.624279 0.25 0.0881508
28 1 0.381029 0.25 0.0891916
29 1 0.423417 0.5 0.0871136
30 1 0.538599 0.375 0.133064
36 1 0.673254 0.5 0.087556
10 1 0.754417 0.125 0.126724
11 1 0.788782 0.375 0.132909
16 1 0.883817 0.25 0.0877288
17 1 0.920178 0.5 0.0874483
45 1 0.128369 0.625 0.13377
49 1 0.265218 0.75 0.0892876
61 1 0.15207 0.875 0.131151
60 1 0.017943 0.75 0.0875218
31 1 0.630536 0.625 0.132664
50 1 0.381481 0.625 0.132466
51 1 0.404996 0.875 0.135236
56 1 0.510687 0.75 0.0893413
57 1 0.660861 0.875 0.135111
37 1 0.761268 0.75 0.0878191
38 1 0.879464 0.625 0.13319
39 1 0.905911 0.875 0.130715
114 1 0.202844 0.5 0.176618
86 1 0.115028 0 0.177253
87 1 0.158301 0.25 0.176923
88 1 0.280191 0.125 0.217971
89 1 0.318033 0.375 0.222496
108 1 0.0692833 0.375 0.221432
66 1 0.0253629 0.125 0.218821
69 1 0.532103 0.125 0.223642
74 1 0.566254 4.18124e-17 0.177221
75 1 0.666969 0.25 0.176691
94 1 0.409823 0.25 0.177858
95 1 0.450238 0.5 0.176439
96 1 0.566156 0.375 0.220751
102 1 0.701545 0.5 0.176776
65 1 0.838759 0 0.17695
76 1 0.780768 0.125 0.225368
77 1 0.815563 0.375 0.221307
80 1 0.910204 0.25 0.177879
81 1 0.952227 0.5 0.176763
125 1 0.18722 0.875 0.221437
115 1 0.287364 0.75 0.175843
109 1 0.161099 0.625 0.221467
124 1 0.0303171 0.75 0.178136
120 1 0.542255 0.75 0.176688
117 1 0.42907 0.875 0.219182
116 1 0.409333 0.625 0.221764
97 1 0.659199 0.625 0.222894
121 1 0.679141 0.875 0.219987
105 1 0.926361 0.875 0.227002
104 1 0.909392 0.625 0.222451
103 1 0.788493 0.75 0.177788
110 1 0.233754 0.5 0.265779
82 1 0.109112 0 0.263136
83 1 0.200408 0.25 0.264855
84 1 0.322477 0.125 0.310954
106 1 0.093104 0.375 0.308922
64 1 0.0758018 0.125 0.311037
85 1 0.343766 0.375 0.309899
67 1 0.36582 4.18124e-17 0.264545
68 1 0.574572 0.125 0.314986
70 1 0.628679 0 0.268768
90 1 0.44664 0.25 0.267411
91 1 0.485936 0.5 0.265422
92 1 0.593969 0.375 0.310619
71 1 0.686729 0.25 0.266924
98 1 0.735721 0.5 0.265438
72 1 0.831692 0.125 0.301113
73 1 0.846266 0.375 0.309698
78 1 0.953529 0.25 0.263277
79 1 0.982895 0.5 0.265516
123 1 0.216419 0.875 0.30828
111 1 0.317776 0.75 0.266237
107 1 0.196172 0.625 0.31169
122 1 0.0732448 0.75 0.265434
118 1 0.55928 0.75 0.265952
113 1 0.464312 0.875 0.312592
112 1 0.446797 0.625 0.311558
93 1 0.693597 0.625 0.310637
119 1 0.721909 0.875 0.317438
101 1 0.970635 0.875 0.306414
100 1 0.944565 0.625 0.311065
99 1 0.806618 0.75 0.268201
176 2 0.303078 0.5 0.355866
170 2 0.134996 0.375 0.398843
149 2 0.224494 0.25 0.354121
148 2 0.186403 0 0.356568
129 2 0.102172 0.125 0.399962
143 2 0.0508775 0.5 0.355452
150 2 0.35323 0.125 0.398652
151 2 0.381426 0.375 0.399696
158 2 0.633433 0.375 0.397974
157 2 0.550645 0.5 0.355531
156 2 0.467884 0.25 0.355615
132 2 0.618512 0.125 0.394258
137 2 0.742307 0.25 0.351379
142 2 0.984014 0.25 0.354152
139 2 0.883702 0.375 0.398054
138 2 0.860724 0.125 0.399662
128 2 0.911095 0 0.352626
187 2 0.2603 0.875 0.402251
171 2 0.21615 0.625 0.399401
186 2 0.0936733 0.75 0.353768
167 2 0.0172466 0.875 0.398842
177 2 0.340825 0.75 0.355998
182 2 0.602498 0.75 0.356224
179 2 0.505602 0.875 0.397444
178 2 0.469531 0.625 0.399975
159 2 0.719953 0.625 0.400214
183 2 0.766828 0.875 0.397683
166 2 0.968166 0.625 0.399953
165 2 0.853863 0.75 0.354939
164 2 0.798392 0.5 0.35535
168 2 0.167637 0.375 0.487733
145 2 0.257663 0.25 0.444181
144 2 0.168141 0 0.443963
127 2 0.127437 0.125 0.488958
141 2 0.0744043 0.5 0.44379
140 2 0.00736305 0.25 0.443885
146 2 0.381059 0.125 0.488881
147 2 0.420553 0.375 0.48704
130 2 0.419828 4.18124e-17 0.44403
153 2 0.576054 0.5 0.444041
152 2 0.510772 0.25 0.441759
131 2 0.629024 0.125 0.488728
154 2 0.668405 0.375 0.487594
133 2 0.665572 8.36248e-17 0.442053
134 2 0.757245 0.25 0.442775
126 2 0.917753 0 0.443214
160 2 0.824623 0.5 0.444132
136 2 0.91746 0.375 0.487647
135 2 0.876775 0.125 0.488583
185 2 0.290659 0.875 0.488409
172 2 0.324302 0.5 0.444133
169 2 0.230701 0.625 0.487909
184 2 0.126315 0.75 0.445273
163 2 0.0354408 0.875 0.488822
173 2 0.379981 0.75 0.443848
180 2 0.628358 0.75 0.443196
175 2 0.541146 0.875 0.488843
174 2 0.480087 0.625 0.488129
155 2 0.728393 0.625 0.488858
181 2 0.785438 0.875 0.488289
162 2 0.978983 0.625 0.488596
161 2 0.877492 0.75 0.44426
232 2 0.182909 0.375 0.576638
211 2 0.286033 0.25 0.532487
210 2 0.193088 0 0.53224
191 2 0.154036 0.125 0.578216
204 2 0.0344159 0.25 0.532622
212 2 0.405521 0.125 0.578402
213 2 0.43152 0.375 0.576825
193 2 0.444117 4.18124e-17 0.53259
219 2 0.572327 0.5 0.531715
218 2 0.536237 0.25 0.533635
194 2 0.662979 0.125 0.580423
220 2 0.682533 0.375 0.577316
198 2 0.690683 8.36248e-17 0.534247
199 2 0.784125 0.25 0.533178
226 2 0.822673 0.5 0.531938
201 2 0.932963 0.375 0.577329
200 2 0.908824 0.125 0.577753
190 2 0.939371 0 0.532896
249 2 0.305529 0.875 0.575673
238 2 0.323092 0.5 0.53142
233 2 0.280806 0.625 0.577369
248 2 0.165045 0.75 0.531924
205 2 0.0727156 0.5 0.531876
229 2 0.0628219 0.875 0.576163
228 2 0.029533 0.625 0.577209
239 2 0.418036 0.75 0.533622
241 2 0.552411 0.875 0.580256
240 2 0.532207 0.625 0.577829
244 2 0.666574 0.75 0.534982
221 2 0.781081 0.625 0.577427
245 2 0.815165 0.875 0.580187
227 2 0.91352 0.75 0.533149
230 3 0.225 0.375 0.665982
207 2 0.296608 0.25 0.622632
206 2 0.266691 0 0.621972
189 3 0.141667 0.125 0.665982
202 2 0.0532292 0.25 0.622721
208 3 0.391667 0.125 0.665982
234 2 0.39197 0.5 0.622748
209 3 0.475 0.375 0.665982
214 2 0.54427 0.25 0.622799
192 3 0.641667 0.125 0.665982
216 3 0.725 0.375 0.665982
195 2 0.805017 0.25 0.62322
188 2 0.999374 8.36248e-17 0.62157
222 2 0.890869 0.5 0.622781
197 3 0.975 0.375 0.665982
196 3 0.891667 0.125 0.665982
231 3 0.308333 0.625 0.665982
246 2 0.178024 0.75 0.621008
225 3 0.141667 0.875 0.665982
203 2 0.141468 0.5 0.622613
224 3 0.0583333 0.625 0.665982
247 3 0.391667 0.875 0.665982
235 2 0.427063 0.75 0.621473
237 3 0.641667 0.875 0.665982
236 3 0.558333 0.625 0.665982
215 2 0.641722 0.5 0.622822
242 2 0.687139 0.75 0.621827
217 3 0.808333 0.625 0.665982
243 3 0.891667 0.875 0.665982
223 2 0.934599 0.75 0.621577
