ITEM: TIMESTEP
304
ITEM: NUMBER OF ATOMS
249
ITEM: BOX BOUNDS pp pp pp
0.0000000000000000e+00 1.1265258452427979e+01
0.0000000000000000e+00 1.0620987524707861e+01
0.0000000000000000e+00 5.1792180038698433e+01
ITEM: ATOMS id type xs ys zs
6 3 0.25 0 0
24 3 0 0 0
25 3 0.0833333 0.25 0
26 1 0.205478 0.125 0.0449166
27 1 0.242025 0.375 0.0436675
52 3 0.166667 0.5 0
7 1 0.451461 0.125 0.0447782
12 3 0.5 0 0
13 3 0.583333 0.25 0
32 3 0.333333 0.25 0
33 3 0.416667 0.5 0
34 1 0.491485 0.375 0.0432385
46 1 0.991304 0.375 0.0438962
2 3 0.75 0 0
3 1 0.962228 0.125 0.0438614
14 1 0.712244 0.125 0.0465633
15 1 0.740769 0.375 0.0430665
18 3 0.833333 0.25 0
19 3 0.916667 0.5 0
40 3 0.666667 0.5 0
47 1 0.0858154 0.625 0.0427355
53 3 0.25 0.75 0
62 3 0 0.75 0
63 1 0.121805 0.875 0.0447807
35 1 0.584309 0.625 0.0434335
54 1 0.334513 0.625 0.0431527
55 1 0.371016 0.875 0.0447756
58 3 0.5 0.75 0
59 1 0.614516 0.875 0.0422131
41 3 0.75 0.75 0
42 1 0.835985 0.625 0.0425868
43 1 0.864867 0.875 0.0452686
4 1 0.27641 2.09062e-17 0.0895105
20 1 0.00818757 0 0.0890808
21 1 0.105543 0.25 0.0903679
22 1 0.217174 0.125 0.137203
23 1 0.245977 0.375 0.133046
48 1 0.138101 0.5 0.0877113
5 1 0.462491 0.125 0.13108
8 1 0.546915 0 0.0876141
9 1 0.597986 0.25 0.0878827
28 1 0.352302 0.25 0.089647
29 1 0.389216 0.5 0.0878674
30 1 0.496974 0.375 0.133826
36 1 0.637819 0.5 0.0881765
44 1 0.994921 0.375 0.132436
1 1 0.961486 0.125 0.1363
10 1 0.714091 0.125 0.128644
11 1 0.746114 0.375 0.133055
16 1 0.854236 0.25 0.0887366
17 1 0.885831 0.5 0.0876337
45 1 0.0950259 0.625 0.132922
49 1 0.231794 0.75 0.0885936
61 1 0.108108 0.875 0.131074
31 1 0.59653 0.625 0.132847
50 1 0.346533 0.625 0.132773
51 1 0.357354 0.875 0.136166
56 1 0.476829 0.75 0.0891657
57 1 0.611958 0.875 0.135579
60 1 0.985144 0.75 0.0867953
37 1 0.72732 0.75 0.0876436
38 1 0.846615 0.625 0.132725
39 1 0.857231 0.875 0.130095
114 1 0.137187 0.5 0.177607
86 1 0.0627242 0 0.177983
87 1 0.102299 0.25 0.177981
88 1 0.21975 0.125 0.218579
89 1 0.249631 0.375 0.222549
69 1 0.465862 0.125 0.224121
74 1 0.512148 4.18124e-17 0.177675
75 1 0.611319 0.25 0.177647
94 1 0.358346 0.25 0.177649
95 1 0.38649 0.5 0.177761
96 1 0.498972 0.375 0.221648
102 1 0.639469 0.5 0.178025
108 1 0.998744 0.375 0.223049
65 1 0.786149 0 0.1777
66 1 0.963082 0.125 0.219127
76 1 0.717877 0.125 0.226
77 1 0.748835 0.375 0.222711
80 1 0.853888 0.25 0.177906
81 1 0.889212 0.5 0.177707
125 1 0.114821 0.875 0.224858
115 1 0.229649 0.75 0.177611
109 1 0.0998385 0.625 0.2225
120 1 0.487514 0.75 0.177565
117 1 0.360873 0.875 0.219863
116 1 0.350034 0.625 0.222963
97 1 0.598495 0.625 0.223349
121 1 0.612237 0.875 0.220125
124 1 0.977101 0.75 0.178229
105 1 0.858636 0.875 0.226752
104 1 0.849825 0.625 0.222876
103 1 0.734589 0.75 0.178106
67 1 0.292642 4.18124e-17 0.266733
110 1 0.143314 0.5 0.26772
82 1 0.0216659 0 0.266468
83 1 0.107997 0.25 0.264884
84 1 0.212642 0.125 0.310908
85 1 0.243794 0.375 0.3107
68 1 0.467638 0.125 0.311243
70 1 0.56034 0 0.266875
71 1 0.598806 0.25 0.266883
90 1 0.353438 0.25 0.265813
91 1 0.393669 0.5 0.267744
92 1 0.493092 0.375 0.311181
98 1 0.642475 0.5 0.267609
106 1 0.996321 0.375 0.310373
64 1 0.970171 0.125 0.313414
72 1 0.730984 0.125 0.304026
73 1 0.745664 0.375 0.31148
78 1 0.861078 0.25 0.265886
79 1 0.890135 0.5 0.267949
123 1 0.115867 0.875 0.309298
111 1 0.236226 0.75 0.268105
107 1 0.0969822 0.625 0.313523
118 1 0.478451 0.75 0.268723
113 1 0.358157 0.875 0.316706
112 1 0.34622 0.625 0.313553
93 1 0.595376 0.625 0.312343
119 1 0.614658 0.875 0.317038
122 1 0.989693 0.75 0.267804
101 1 0.865671 0.875 0.307723
100 1 0.845906 0.625 0.312918
99 1 0.728722 0.75 0.268267
176 2 0.189189 0.5 0.356735
170 2 0.0189981 0.375 0.400746
151 2 0.267416 0.375 0.401013
150 2 0.226535 0.125 0.400015
149 2 0.110256 0.25 0.356321
148 2 0.0747986 0 0.35661
158 2 0.51752 0.375 0.399448
157 2 0.437795 0.5 0.356194
156 2 0.354877 0.25 0.355361
137 2 0.624355 0.25 0.352651
132 2 0.488821 0.125 0.395785
143 2 0.937131 0.5 0.356392
142 2 0.867485 0.25 0.355293
139 2 0.768525 0.375 0.399462
138 2 0.730842 0.125 0.400775
129 2 0.973202 0.125 0.399604
128 2 0.800164 0 0.354899
187 2 0.128614 0.875 0.402674
177 2 0.227849 0.75 0.357938
171 2 0.0853992 0.625 0.400904
182 2 0.492046 0.75 0.358223
179 2 0.37558 0.875 0.398101
178 2 0.33952 0.625 0.400901
159 2 0.588961 0.625 0.401601
183 2 0.638603 0.875 0.398432
186 2 0.982429 0.75 0.355691
167 2 0.887085 0.875 0.40054
166 2 0.836839 0.625 0.401235
165 2 0.741358 0.75 0.356558
164 2 0.684484 0.5 0.356497
168 2 0.0183224 0.375 0.48915
147 2 0.269147 0.375 0.488959
146 2 0.235688 0.125 0.489438
145 2 0.12255 0.25 0.444766
144 2 0.0293744 0 0.444793
130 2 0.28082 4.18124e-17 0.445166
154 2 0.517698 0.375 0.489314
153 2 0.426783 0.5 0.445384
152 2 0.375199 0.25 0.443292
134 2 0.621843 0.25 0.443723
133 2 0.526229 8.36248e-17 0.442802
131 2 0.484372 0.125 0.489272
126 2 0.777929 0 0.44448
160 2 0.675931 0.5 0.445189
141 2 0.925317 0.5 0.445109
140 2 0.872701 0.25 0.444925
136 2 0.766608 0.375 0.48934
135 2 0.731748 0.125 0.489248
127 2 0.983229 0.125 0.489536
185 2 0.140987 0.875 0.489438
173 2 0.244138 0.75 0.44447
172 2 0.176135 0.5 0.444968
169 2 0.0902774 0.625 0.489363
180 2 0.493178 0.75 0.443784
175 2 0.391166 0.875 0.48926
174 2 0.339027 0.625 0.489086
155 2 0.587282 0.625 0.489391
181 2 0.636122 0.875 0.489165
184 2 0.991024 0.75 0.446401
163 2 0.887465 0.875 0.489486
162 2 0.836882 0.625 0.489679
161 2 0.742064 0.75 0.445235
232 2 0.0226807 0.375 0.577793
213 2 0.270706 0.375 0.578012
212 2 0.232997 0.125 0.57988
211 2 0.125805 0.25 0.533918
210 2 0.0322327 0 0.534057
193 2 0.282493 4.18124e-17 0.53393
220 2 0.519639 0.375 0.578572
219 2 0.425818 0.5 0.533059
218 2 0.375884 0.25 0.535193
199 2 0.623436 0.25 0.534764
198 2 0.52818 8.36248e-17 0.535498
194 2 0.492023 0.125 0.582349
226 2 0.675368 0.5 0.533558
204 2 0.874913 0.25 0.533482
201 2 0.771785 0.375 0.578451
200 2 0.735206 0.125 0.577921
191 2 0.978934 0.125 0.578794
190 2 0.779732 0 0.534005
249 2 0.137674 0.875 0.576546
239 2 0.250826 0.75 0.534063
238 2 0.177277 0.5 0.533219
233 2 0.095633 0.625 0.577376
244 2 0.498943 0.75 0.534773
241 2 0.38421 0.875 0.580881
240 2 0.347657 0.625 0.577903
221 2 0.595601 0.625 0.577557
245 2 0.643725 0.875 0.580144
248 2 0.997282 0.75 0.532726
229 2 0.894159 0.875 0.578478
228 2 0.84387 0.625 0.577095
227 2 0.746819 0.75 0.533708
205 2 0.926631 0.5 0.533471
234 2 0.194813 0.5 0.622424
230 3 0.025 0.375 0.665982
209 3 0.275 0.375 0.665982
208 3 0.191667 0.125 0.665982
207 2 0.115822 0.25 0.623176
206 2 0.0735709 0 0.621685
216 3 0.525 0.375 0.665982
214 2 0.362759 0.25 0.623556
195 2 0.623077 0.25 0.623331
192 3 0.441667 0.125 0.665982
188 2 0.805286 8.36248e-17 0.622178
222 2 0.69241 0.5 0.622393
202 2 0.871469 0.25 0.622836
197 3 0.775 0.375 0.665982
196 3 0.691667 0.125 0.665982
189 3 0.941667 0.125 0.665982
247 3 0.191667 0.875 0.665982
235 2 0.244039 0.75 0.622017
231 3 0.108333 0.625 0.665982
242 2 0.506014 0.75 0.622769
237 3 0.441667 0.875 0.665982
236 3 0.358333 0.625 0.665982
217 3 0.608333 0.625 0.665982
215 2 0.443491 0.5 0.622569
246 2 0.995682 0.75 0.621631
243 3 0.691667 0.875 0.665982
225 3 0.941667 0.875 0.665982
224 3 0.858333 0.625 0.665982
223 2 0.752247 0.75 0.622393
203 2 0.944112 0.5 0.622249
