ITEM: TIMESTEP
1235
ITEM: NUMBER OF ATOMS
249
ITEM: BOX BOUNDS pp pp pp
0.0000000000000000e+00 1.1265258452427979e+01
0.0000000000000000e+00 1.0620987524707861e+01
0.0000000000000000e+00 5.1792180038698433e+01
ITEM: ATOMS id type xs ys zs
6 3 0.25 0 0
24 3 0 0 0
25 3 0.0833333 0.25 0
26 1 0.211549 0.125 0.0452446
27 1 0.255676 0.375 0.0435662
52 3 0.166667 0.5 0
46 1 0.00527932 0.375 0.0436348
7 1 0.460113 0.125 0.0450618
12 3 0.5 0 0
13 3 0.583333 0.25 0
32 3 0.333333 0.25 0
33 3 0.416667 0.5 0
34 1 0.504885 0.375 0.0430837
2 3 0.75 0 0
3 1 0.967847 0.125 0.0438924
14 1 0.71828 0.125 0.046688
15 1 0.753855 0.375 0.043008
18 3 0.833333 0.25 0
19 3 0.916667 0.5 0
40 3 0.666667 0.5 0
47 1 0.0880599 0.625 0.0430114
53 3 0.25 0.75 0
62 3 0 0.75 0
63 1 0.130275 0.875 0.0444741
35 1 0.587702 0.625 0.0440413
54 1 0.336689 0.625 0.043518
55 1 0.378967 0.875 0.0445978
58 3 0.5 0.75 0
59 1 0.622877 0.875 0.0426303
41 3 0.75 0.75 0
42 1 0.838707 0.625 0.0430594
43 1 0.872773 0.875 0.0456128
4 1 0.290868 2.09062e-17 0.0885297
20 1 0.0287599 0 0.0881298
21 1 0.123895 0.25 0.0898418
22 1 0.247353 0.125 0.135877
23 1 0.275146 0.375 0.13255
48 1 0.161749 0.5 0.0873156
44 1 0.0237822 0.375 0.132357
5 1 0.491621 0.125 0.133054
8 1 0.554215 0 0.0890698
9 1 0.616204 0.25 0.0881329
28 1 0.372111 0.25 0.0893553
29 1 0.413576 0.5 0.0871056
30 1 0.526077 0.375 0.133203
36 1 0.662992 0.5 0.0876253
1 1 0.99128 0.125 0.135657
10 1 0.742473 0.125 0.127246
11 1 0.776022 0.375 0.133078
16 1 0.874897 0.25 0.0880477
17 1 0.90992 0.5 0.0873835
45 1 0.120878 0.625 0.133027
49 1 0.254856 0.75 0.0888298
61 1 0.137972 0.875 0.130843
60 1 0.00716794 0.75 0.08684
31 1 0.623169 0.625 0.132569
50 1 0.373647 0.625 0.132316
51 1 0.390733 0.875 0.135408
56 1 0.50014 0.75 0.0891927
57 1 0.646313 0.875 0.13529
37 1 0.750583 0.75 0.0876041
38 1 0.872256 0.625 0.132799
39 1 0.890949 0.875 0.130498
114 1 0.178745 0.5 0.176947
86 1 0.0997367 0 0.177394
87 1 0.141572 0.25 0.177416
88 1 0.264484 0.125 0.217622
89 1 0.29561 0.375 0.222567
108 1 0.0458273 0.375 0.222248
66 1 0.00855149 0.125 0.219234
69 1 0.51238 0.125 0.223929
74 1 0.550369 4.18124e-17 0.17739
75 1 0.650493 0.25 0.177137
94 1 0.395272 0.25 0.177672
95 1 0.427374 0.5 0.176787
96 1 0.544254 0.375 0.221267
102 1 0.679516 0.5 0.177224
65 1 0.823148 0 0.177184
76 1 0.761941 0.125 0.226087
77 1 0.793698 0.375 0.221945
80 1 0.893479 0.25 0.178237
81 1 0.929966 0.5 0.17712
125 1 0.16316 0.875 0.222777
115 1 0.269299 0.75 0.176188
109 1 0.142467 0.625 0.221868
124 1 0.0144903 0.75 0.178044
120 1 0.525804 0.75 0.17665
117 1 0.407317 0.875 0.219141
116 1 0.390935 0.625 0.221945
97 1 0.639961 0.625 0.222949
121 1 0.658081 0.875 0.219856
105 1 0.904506 0.875 0.226749
104 1 0.890945 0.625 0.222618
103 1 0.772299 0.75 0.17784
67 1 0.336956 4.18124e-17 0.264512
110 1 0.20432 0.5 0.266394
82 1 0.077754 0 0.264401
83 1 0.172521 0.25 0.264615
84 1 0.290564 0.125 0.310912
85 1 0.313128 0.375 0.31022
106 1 0.0636567 0.375 0.309335
64 1 0.0445471 0.125 0.311729
68 1 0.542588 0.125 0.314734
70 1 0.601071 0 0.268633
71 1 0.659903 0.25 0.267378
90 1 0.419152 0.25 0.267297
91 1 0.455784 0.5 0.266057
92 1 0.563357 0.375 0.31106
98 1 0.705085 0.5 0.266025
72 1 0.80055 0.125 0.302214
73 1 0.815699 0.375 0.3105
78 1 0.925036 0.25 0.264302
79 1 0.952281 0.5 0.2664
123 1 0.185868 0.875 0.308539
111 1 0.293028 0.75 0.266748
107 1 0.165851 0.625 0.312327
122 1 0.0471098 0.75 0.266246
118 1 0.534711 0.75 0.266375
113 1 0.433091 0.875 0.313072
112 1 0.4162 0.625 0.312197
93 1 0.663369 0.625 0.311163
119 1 0.690091 0.875 0.317497
101 1 0.939349 0.875 0.307275
100 1 0.914247 0.625 0.311793
99 1 0.782734 0.75 0.268191
176 2 0.268927 0.5 0.356295
170 2 0.103656 0.375 0.399419
150 2 0.314538 0.125 0.39952
149 2 0.190473 0.25 0.354788
148 2 0.153629 0 0.356694
129 2 0.0631661 0.125 0.3999
143 2 0.0169274 0.5 0.355751
151 2 0.350663 0.375 0.400325
158 2 0.601512 0.375 0.398418
157 2 0.516518 0.5 0.355894
156 2 0.433851 0.25 0.355781
132 2 0.579335 0.125 0.394857
137 2 0.707278 0.25 0.352004
142 2 0.949409 0.25 0.354587
139 2 0.852057 0.375 0.398464
138 2 0.821413 0.125 0.400175
128 2 0.878008 0 0.35344
187 2 0.220955 0.875 0.402488
177 2 0.307123 0.75 0.356392
171 2 0.175977 0.625 0.399924
186 2 0.0602676 0.75 0.354531
182 2 0.568799 0.75 0.356761
179 2 0.466697 0.875 0.397875
178 2 0.42939 0.625 0.400372
159 2 0.679254 0.625 0.400702
183 2 0.728663 0.875 0.398091
167 2 0.9787 0.875 0.399259
166 2 0.927404 0.625 0.400402
165 2 0.819679 0.75 0.35555
164 2 0.764099 0.5 0.355791
168 2 0.122539 0.375 0.488138
145 2 0.218 0.25 0.44457
144 2 0.126228 0 0.444278
127 2 0.0847596 0.125 0.489286
141 2 0.025633 0.5 0.443892
146 2 0.338006 0.125 0.489277
147 2 0.37491 0.375 0.487594
130 2 0.377767 4.18124e-17 0.444633
154 2 0.622867 0.375 0.488116
153 2 0.52729 0.5 0.444245
152 2 0.471229 0.25 0.442407
133 2 0.62337 8.36248e-17 0.44247
131 2 0.586292 0.125 0.489056
134 2 0.717743 0.25 0.443126
126 2 0.875653 0 0.44372
160 2 0.775972 0.5 0.444282
140 2 0.968342 0.25 0.444209
136 2 0.872038 0.375 0.488019
135 2 0.833985 0.125 0.488866
185 2 0.2462 0.875 0.488943
172 2 0.275508 0.5 0.444102
169 2 0.185722 0.625 0.488136
184 2 0.0859261 0.75 0.445663
173 2 0.339749 0.75 0.444283
180 2 0.588369 0.75 0.443591
175 2 0.49688 0.875 0.489218
174 2 0.434856 0.625 0.488281
155 2 0.683173 0.625 0.488975
181 2 0.74138 0.875 0.488736
163 2 0.991651 0.875 0.489185
162 2 0.933695 0.625 0.488827
161 2 0.837285 0.75 0.444658
232 2 0.13314 0.375 0.57683
211 2 0.238287 0.25 0.532938
210 2 0.144499 0 0.53306
191 2 0.103324 0.125 0.578723
212 2 0.355651 0.125 0.579107
213 2 0.381708 0.375 0.577079
193 2 0.395565 4.18124e-17 0.533269
220 2 0.632408 0.375 0.57756
219 2 0.526561 0.5 0.532089
218 2 0.48841 0.25 0.53413
198 2 0.641768 8.36248e-17 0.534884
194 2 0.61371 0.125 0.581164
199 2 0.736304 0.25 0.53359
226 2 0.776947 0.5 0.532356
204 2 0.986807 0.25 0.532858
201 2 0.883148 0.375 0.577538
200 2 0.858696 0.125 0.578066
190 2 0.891192 0 0.533474
249 2 0.256898 0.875 0.57603
238 2 0.277435 0.5 0.531819
233 2 0.228408 0.625 0.577376
248 2 0.117766 0.75 0.53215
205 2 0.0271212 0.5 0.532215
229 2 0.0140177 0.875 0.577143
239 2 0.371339 0.75 0.533881
244 2 0.619723 0.75 0.535179
241 2 0.50339 0.875 0.580809
240 2 0.479917 0.625 0.577931
221 2 0.72859 0.625 0.577551
245 2 0.765317 0.875 0.580539
228 2 0.976993 0.625 0.577141
227 2 0.866746 0.75 0.533501
230 3 0.166667 0.375 0.665982
208 3 0.333333 0.125 0.665982
207 2 0.244655 0.25 0.622998
206 2 0.20981 0 0.621895
189 3 0.0833333 0.125 0.665982
202 2 0.000663378 0.25 0.622939
234 2 0.336397 0.5 0.622675
209 3 0.416667 0.375 0.665982
216 3 0.666667 0.375 0.665982
214 2 0.492226 0.25 0.623194
192 3 0.583333 0.125 0.665982
195 2 0.75227 0.25 0.623411
188 2 0.942413 8.36248e-17 0.621812
222 2 0.834971 0.5 0.622692
197 3 0.916667 0.375 0.665982
196 3 0.833333 0.125 0.665982
247 3 0.333333 0.875 0.665982
231 3 0.25 0.625 0.665982
246 2 0.124915 0.75 0.621204
225 3 0.0833333 0.875 0.665982
203 2 0.0858944 0.5 0.622502
235 2 0.373688 0.75 0.621672
242 2 0.634333 0.75 0.622152
237 3 0.583333 0.875 0.665982
236 3 0.5 0.625 0.665982
215 2 0.585785 0.5 0.622756
217 3 0.75 0.625 0.665982
243 3 0.833333 0.875 0.665982
224 3 1 0.625 0.665982
223 2 0.881436 0.75 0.621874
