ITEM: TIMESTEP
1102
ITEM: NUMBER OF ATOMS
249
ITEM: BOX BOUNDS pp pp pp
0.0000000000000000e+00 1.1265258452427979e+01
0.0000000000000000e+00 1.0620987524707861e+01
0.0000000000000000e+00 5.1792180038698433e+01
ITEM: ATOMS id type xs ys zs
6 3 0.25 0 0
24 3 0 0 0
25 3 0.0833333 0.25 0
26 1 0.210722 0.125 0.04522
27 1 0.253942 0.375 0.043541
52 3 0.166667 0.5 0
46 1 0.0034803 0.375 0.0436197
7 1 0.459041 0.125 0.0450504
12 3 0.5 0 0
13 3 0.583333 0.25 0
32 3 0.333333 0.25 0
33 3 0.416667 0.5 0
34 1 0.503155 0.375 0.0430735
2 3 0.75 0 0
3 1 0.967097 0.125 0.0438912
14 1 0.717555 0.125 0.0466561
15 1 0.752161 0.375 0.0429818
18 3 0.833333 0.25 0
19 3 0.916667 0.5 0
40 3 0.666667 0.5 0
47 1 0.0885316 0.625 0.0429873
53 3 0.25 0.75 0
62 3 0 0.75 0
63 1 0.129067 0.875 0.0445042
35 1 0.58784 0.625 0.0439658
54 1 0.33712 0.625 0.0434783
55 1 0.377847 0.875 0.0446005
58 3 0.5 0.75 0
59 1 0.621701 0.875 0.0425518
41 3 0.75 0.75 0
42 1 0.839021 0.625 0.0430015
43 1 0.871664 0.875 0.0455908
4 1 0.289328 2.09062e-17 0.0886259
20 1 0.0265107 0 0.0882417
21 1 0.121578 0.25 0.0898796
22 1 0.243647 0.125 0.13603
23 1 0.27139 0.375 0.132618
48 1 0.158761 0.5 0.0873411
44 1 0.020148 0.375 0.132379
5 1 0.488124 0.125 0.132777
8 1 0.553655 0 0.0888666
9 1 0.61405 0.25 0.0880928
28 1 0.369645 0.25 0.0893916
29 1 0.410515 0.5 0.087181
30 1 0.522396 0.375 0.133272
36 1 0.659758 0.5 0.0876811
1 1 0.987701 0.125 0.135772
10 1 0.739175 0.125 0.127408
11 1 0.772274 0.375 0.133078
16 1 0.872412 0.25 0.0881224
17 1 0.906806 0.5 0.0873974
45 1 0.117972 0.625 0.13295
49 1 0.251834 0.75 0.08875
61 1 0.13413 0.875 0.130814
60 1 0.00429079 0.75 0.0867577
31 1 0.620144 0.625 0.132575
50 1 0.370514 0.625 0.132336
51 1 0.386514 0.875 0.135499
56 1 0.497076 0.75 0.0891724
57 1 0.642081 0.875 0.13533
37 1 0.747552 0.75 0.0875883
38 1 0.869374 0.625 0.132743
39 1 0.886698 0.875 0.130404
114 1 0.173212 0.5 0.177024
86 1 0.0955324 0 0.177469
87 1 0.136668 0.25 0.177548
88 1 0.259493 0.125 0.217786
89 1 0.28977 0.375 0.222555
108 1 0.039788 0.375 0.222408
66 1 0.00323615 0.125 0.219267
69 1 0.506641 0.125 0.223938
74 1 0.545669 4.18124e-17 0.177402
75 1 0.645689 0.25 0.177215
94 1 0.390743 0.25 0.177662
95 1 0.422017 0.5 0.176877
96 1 0.538592 0.375 0.221316
102 1 0.674321 0.5 0.177298
65 1 0.818806 0 0.177258
76 1 0.756354 0.125 0.226198
77 1 0.787998 0.375 0.222071
80 1 0.888552 0.25 0.178278
81 1 0.924672 0.5 0.177175
125 1 0.156638 0.875 0.22307
115 1 0.264313 0.75 0.176356
109 1 0.13759 0.625 0.221946
124 1 0.00998022 0.75 0.178009
120 1 0.521116 0.75 0.176697
117 1 0.401393 0.875 0.219248
116 1 0.386272 0.625 0.222017
97 1 0.635106 0.625 0.222936
121 1 0.652255 0.875 0.219854
105 1 0.898625 0.875 0.226665
104 1 0.886294 0.625 0.2226
103 1 0.767725 0.75 0.177836
67 1 0.329565 4.18124e-17 0.264667
110 1 0.195818 0.5 0.266599
82 1 0.0695574 0 0.264681
83 1 0.164258 0.25 0.264647
84 1 0.281035 0.125 0.310931
85 1 0.304223 0.375 0.3103
106 1 0.0549485 0.375 0.30948
64 1 0.0352445 0.125 0.311929
68 1 0.533118 0.125 0.314496
70 1 0.593785 0 0.268484
71 1 0.652132 0.25 0.267407
90 1 0.41103 0.25 0.267103
91 1 0.447047 0.5 0.266289
92 1 0.554346 0.375 0.311126
98 1 0.696195 0.5 0.266227
72 1 0.791551 0.125 0.302453
73 1 0.806769 0.375 0.310686
78 1 0.916818 0.25 0.264539
79 1 0.943458 0.5 0.266638
123 1 0.17679 0.875 0.308619
111 1 0.285929 0.75 0.266917
107 1 0.15712 0.625 0.312515
122 1 0.0397769 0.75 0.266465
118 1 0.527709 0.75 0.266662
113 1 0.423535 0.875 0.31345
112 1 0.407305 0.625 0.312421
93 1 0.654723 0.625 0.31134
119 1 0.680589 0.875 0.317421
101 1 0.930052 0.875 0.307432
100 1 0.905497 0.625 0.311985
99 1 0.776121 0.75 0.268137
176 2 0.258696 0.5 0.356376
170 2 0.0940453 0.375 0.399585
150 2 0.303367 0.125 0.399644
149 2 0.180543 0.25 0.354972
148 2 0.143737 0 0.356711
129 2 0.0518 0.125 0.399877
143 2 0.0067516 0.5 0.355828
151 2 0.341228 0.375 0.400442
158 2 0.59185 0.375 0.398549
157 2 0.506355 0.5 0.355957
156 2 0.424037 0.25 0.355783
132 2 0.567955 0.125 0.394955
137 2 0.697074 0.25 0.352123
142 2 0.939305 0.25 0.354716
139 2 0.842438 0.375 0.398579
138 2 0.809967 0.125 0.400281
128 2 0.868093 0 0.353624
187 2 0.209443 0.875 0.40255
177 2 0.296967 0.75 0.356596
171 2 0.164159 0.625 0.400074
186 2 0.0504045 0.75 0.354718
182 2 0.55909 0.75 0.356918
179 2 0.455368 0.875 0.39792
178 2 0.417748 0.625 0.400442
159 2 0.667404 0.625 0.400822
183 2 0.717501 0.875 0.398181
167 2 0.967379 0.875 0.399374
166 2 0.915502 0.625 0.400505
165 2 0.809657 0.75 0.355707
164 2 0.753842 0.5 0.35589
168 2 0.10951 0.375 0.488218
146 2 0.32539 0.125 0.489324
145 2 0.206299 0.25 0.444617
144 2 0.114056 0 0.444358
127 2 0.072218 0.125 0.489343
141 2 0.0120695 0.5 0.443974
147 2 0.361667 0.375 0.487742
130 2 0.36562 4.18124e-17 0.444734
154 2 0.609689 0.375 0.488256
153 2 0.513795 0.5 0.444364
152 2 0.459478 0.25 0.442516
133 2 0.611158 8.36248e-17 0.44252
131 2 0.573719 0.125 0.489086
134 2 0.705993 0.25 0.443184
126 2 0.863461 0 0.443829
160 2 0.762455 0.5 0.444355
140 2 0.95668 0.25 0.444283
136 2 0.858848 0.375 0.488135
135 2 0.82137 0.125 0.488909
185 2 0.233289 0.875 0.48903
173 2 0.328008 0.75 0.444328
172 2 0.262133 0.5 0.444115
169 2 0.17332 0.625 0.488204
184 2 0.0740864 0.75 0.445759
180 2 0.576627 0.75 0.443654
175 2 0.483943 0.875 0.489262
174 2 0.422305 0.625 0.488351
155 2 0.67066 0.625 0.489029
181 2 0.728479 0.875 0.488811
163 2 0.978816 0.875 0.489258
162 2 0.921128 0.625 0.488928
161 2 0.825521 0.75 0.444738
232 2 0.118672 0.375 0.576876
211 2 0.224426 0.25 0.53303
210 2 0.130596 0 0.533225
191 2 0.0885913 0.125 0.578796
212 2 0.34113 0.125 0.579233
213 2 0.367214 0.375 0.577129
193 2 0.381619 4.18124e-17 0.533385
220 2 0.617827 0.375 0.577617
219 2 0.513394 0.5 0.532189
218 2 0.474539 0.25 0.534234
198 2 0.627743 8.36248e-17 0.534985
194 2 0.599344 0.125 0.581302
199 2 0.722411 0.25 0.533681
226 2 0.76379 0.5 0.532492
204 2 0.972998 0.25 0.532891
201 2 0.868693 0.375 0.577581
200 2 0.844124 0.125 0.578093
190 2 0.87737 0 0.533571
249 2 0.242699 0.875 0.576101
238 2 0.264295 0.5 0.531932
233 2 0.213272 0.625 0.57738
248 2 0.103747 0.75 0.532179
205 2 0.0140633 0.5 0.532308
229 2 -0.000198022 0.875 0.57736
239 2 0.357417 0.75 0.533935
244 2 0.605771 0.75 0.5352
241 2 0.48915 0.875 0.580892
240 2 0.464842 0.625 0.57796
221 2 0.713447 0.625 0.577598
245 2 0.750821 0.875 0.580575
228 2 0.961856 0.625 0.577121
227 2 0.852805 0.75 0.533581
234 2 0.320489 0.5 0.622653
230 3 0.15 0.375 0.665982
208 3 0.316667 0.125 0.665982
207 2 0.229355 0.25 0.623058
206 2 0.193614 0 0.621862
189 3 0.0666667 0.125 0.665982
209 3 0.4 0.375 0.665982
216 3 0.65 0.375 0.665982
214 2 0.476912 0.25 0.623262
192 3 0.566667 0.125 0.665982
195 2 0.736845 0.25 0.623432
188 2 0.926228 8.36248e-17 0.621863
222 2 0.819011 0.5 0.622665
202 2 0.985261 0.25 0.622967
197 3 0.9 0.375 0.665982
196 3 0.816667 0.125 0.665982
247 3 0.316667 0.875 0.665982
231 3 0.233333 0.625 0.665982
246 2 0.109646 0.75 0.621259
225 3 0.0666667 0.875 0.665982
203 2 0.069988 0.5 0.622473
235 2 0.358355 0.75 0.621722
242 2 0.619133 0.75 0.622243
237 3 0.566667 0.875 0.665982
236 3 0.483333 0.625 0.665982
215 2 0.569802 0.5 0.622743
217 3 0.733333 0.625 0.665982
243 3 0.816667 0.875 0.665982
224 3 0.983333 0.625 0.665982
223 2 0.866168 0.75 0.621951
