ITEM: TIMESTEP
1363
ITEM: NUMBER OF ATOMS
249
ITEM: BOX BOUNDS pp pp pp
0.0000000000000000e+00 1.1265258452427979e+01
0.0000000000000000e+00 1.0620987524707861e+01
0.0000000000000000e+00 5.1792180038698433e+01
ITEM: ATOMS id type xs ys zs
6 3 0.25 0 0
24 3 0 0 0
25 3 0.0833333 0.25 0
26 1 0.212326 0.125 0.045267
27 1 0.257528 0.375 0.0436047
52 3 0.166667 0.5 0
46 1 0.00722711 0.375 0.0436654
7 1 0.461165 0.125 0.0450723
12 3 0.5 0 0
13 3 0.583333 0.25 0
32 3 0.333333 0.25 0
33 3 0.416667 0.5 0
34 1 0.506715 0.375 0.0431018
2 3 0.75 0 0
3 1 0.96853 0.125 0.0438869
14 1 0.719064 0.125 0.0466906
15 1 0.755666 0.375 0.0430441
18 3 0.833333 0.25 0
19 3 0.916667 0.5 0
40 3 0.666667 0.5 0
47 1 0.0873009 0.625 0.0430308
53 3 0.25 0.75 0
62 3 0 0.75 0
63 1 0.131549 0.875 0.0444458
35 1 0.587342 0.625 0.0440988
54 1 0.335993 0.625 0.0435536
55 1 0.380074 0.875 0.0445925
58 3 0.5 0.75 0
59 1 0.624029 0.875 0.0426986
41 3 0.75 0.75 0
42 1 0.838138 0.625 0.0430958
43 1 0.87386 0.875 0.045657
4 1 0.292777 2.09062e-17 0.0884524
20 1 0.0311736 0 0.0880021
21 1 0.126228 0.25 0.0898051
22 1 0.250895 0.125 0.135733
23 1 0.278783 0.375 0.132494
48 1 0.164603 0.5 0.0873252
44 1 0.0272994 0.375 0.132331
5 1 0.494947 0.125 0.133237
8 1 0.555477 0 0.0892128
9 1 0.618353 0.25 0.0881498
28 1 0.374513 0.25 0.0893105
29 1 0.416474 0.5 0.0870634
30 1 0.529587 0.375 0.133155
36 1 0.666038 0.5 0.0875879
1 1 0.994833 0.125 0.135537
10 1 0.745771 0.125 0.127086
11 1 0.77962 0.375 0.133054
16 1 0.877354 0.25 0.0879659
17 1 0.912906 0.5 0.0873787
45 1 0.123288 0.625 0.133153
49 1 0.257736 0.75 0.0889314
61 1 0.141811 0.875 0.130894
60 1 0.0100285 0.75 0.0869601
31 1 0.625666 0.625 0.132576
50 1 0.376245 0.625 0.132324
51 1 0.39475 0.875 0.135338
56 1 0.503066 0.75 0.0892239
57 1 0.650372 0.875 0.13524
37 1 0.753493 0.75 0.0876299
38 1 0.874639 0.625 0.132869
39 1 0.895092 0.875 0.130551
114 1 0.184767 0.5 0.176847
86 1 0.103907 0 0.177349
87 1 0.146293 0.25 0.177298
88 1 0.268954 0.125 0.21764
89 1 0.301591 0.375 0.222553
108 1 0.0520529 0.375 0.222042
66 1 0.0134213 0.125 0.219171
69 1 0.517864 0.125 0.223869
74 1 0.554805 4.18124e-17 0.177353
75 1 0.655091 0.25 0.177019
94 1 0.399435 0.25 0.177708
95 1 0.433155 0.5 0.176687
96 1 0.55007 0.375 0.22116
102 1 0.685104 0.5 0.17712
65 1 0.827403 0 0.177101
76 1 0.767244 0.125 0.225899
77 1 0.799541 0.375 0.221775
80 1 0.898197 0.25 0.178159
81 1 0.93565 0.5 0.177022
125 1 0.169739 0.875 0.222453
115 1 0.274275 0.75 0.176045
109 1 0.147436 0.625 0.221766
124 1 0.0189174 0.75 0.178061
120 1 0.530392 0.75 0.176622
117 1 0.413227 0.875 0.219103
116 1 0.395765 0.625 0.221883
97 1 0.644984 0.625 0.222943
121 1 0.663838 0.875 0.219865
105 1 0.910427 0.875 0.22682
104 1 0.895784 0.625 0.222593
103 1 0.776812 0.75 0.177823
110 1 0.212627 0.5 0.266193
82 1 0.0862841 0 0.264076
83 1 0.180425 0.25 0.264639
84 1 0.299639 0.125 0.310933
85 1 0.321755 0.375 0.310123
106 1 0.0719929 0.375 0.309194
64 1 0.0534349 0.125 0.311525
67 1 0.344661 4.18124e-17 0.264464
68 1 0.551764 0.125 0.314859
70 1 0.608566 0 0.26869
71 1 0.667449 0.25 0.26727
90 1 0.426925 0.25 0.267394
91 1 0.464301 0.5 0.265849
92 1 0.57205 0.375 0.310937
98 1 0.713773 0.5 0.26583
72 1 0.809344 0.125 0.301898
73 1 0.824326 0.375 0.310283
78 1 0.933054 0.25 0.264018
79 1 0.960923 0.5 0.266151
123 1 0.194519 0.875 0.308467
111 1 0.299961 0.75 0.266599
107 1 0.174317 0.625 0.312133
122 1 0.0543497 0.75 0.266016
118 1 0.541563 0.75 0.266193
113 1 0.441999 0.875 0.312871
112 1 0.424812 0.625 0.311999
93 1 0.671844 0.625 0.31099
119 1 0.69914 0.875 0.317493
101 1 0.948211 0.875 0.307052
100 1 0.922712 0.625 0.311594
99 1 0.789326 0.75 0.268197
176 2 0.278359 0.5 0.356157
170 2 0.111718 0.375 0.399257
150 2 0.325808 0.125 0.399252
149 2 0.200185 0.25 0.354594
148 2 0.16283 0 0.356676
129 2 0.0745111 0.125 0.399935
143 2 0.0263516 0.5 0.355674
151 2 0.358524 0.375 0.400092
158 2 0.609753 0.375 0.398286
157 2 0.525951 0.5 0.355771
156 2 0.443553 0.25 0.355715
132 2 0.590736 0.125 0.394687
137 2 0.717259 0.25 0.351828
142 2 0.959294 0.25 0.354435
139 2 0.860277 0.375 0.398342
138 2 0.832885 0.125 0.400014
128 2 0.887293 0 0.353203
187 2 0.23226 0.875 0.40244
177 2 0.316785 0.75 0.356261
171 2 0.187967 0.625 0.399764
186 2 0.0698183 0.75 0.35431
182 2 0.578448 0.75 0.356598
179 2 0.477882 0.875 0.397773
178 2 0.441331 0.625 0.400246
159 2 0.691398 0.625 0.400578
183 2 0.739602 0.875 0.397997
167 2 0.989776 0.875 0.399143
166 2 0.93961 0.625 0.400285
165 2 0.829456 0.75 0.355383
164 2 0.773533 0.5 0.355677
168 2 0.135707 0.375 0.488009
145 2 0.229379 0.25 0.44446
144 2 0.138319 0 0.444194
127 2 0.0973452 0.125 0.489201
141 2 0.0406519 0.5 0.443905
146 2 0.350675 0.125 0.489173
147 2 0.388237 0.375 0.487419
130 2 0.389906 4.18124e-17 0.444458
154 2 0.636153 0.375 0.487939
153 2 0.542236 0.5 0.444192
152 2 0.482556 0.25 0.442225
133 2 0.635554 8.36248e-17 0.442361
131 2 0.598858 0.125 0.488974
134 2 0.729063 0.25 0.443036
126 2 0.88781 0 0.443569
160 2 0.790965 0.5 0.444261
140 2 0.979472 0.25 0.444137
136 2 0.885272 0.375 0.487908
135 2 0.846588 0.125 0.488796
185 2 0.259116 0.875 0.488797
172 2 0.290507 0.5 0.444135
169 2 0.198855 0.625 0.488096
184 2 0.0974414 0.75 0.445578
163 2 0.00434777 0.875 0.489091
173 2 0.351231 0.75 0.444177
180 2 0.599765 0.75 0.443503
175 2 0.509729 0.875 0.489123
174 2 0.448053 0.625 0.48827
155 2 0.696341 0.625 0.48898
181 2 0.754174 0.875 0.488617
162 2 0.946886 0.625 0.488808
161 2 0.848766 0.75 0.444576
232 2 0.147551 0.375 0.57679
211 2 0.252154 0.25 0.53282
210 2 0.158406 0 0.532853
191 2 0.117993 0.125 0.578608
204 2 0.000639315 0.25 0.5328
212 2 0.370091 0.125 0.578939
213 2 0.396131 0.375 0.577018
193 2 0.409468 4.18124e-17 0.533106
220 2 0.646904 0.375 0.577505
219 2 0.539803 0.5 0.531991
218 2 0.502286 0.25 0.533992
198 2 0.655765 8.36248e-17 0.534735
194 2 0.627984 0.125 0.580978
199 2 0.750167 0.25 0.533479
226 2 0.790159 0.5 0.53225
201 2 0.897559 0.375 0.577488
200 2 0.8732 0.125 0.578003
190 2 0.904982 0 0.533342
249 2 0.270941 0.875 0.575942
238 2 0.290643 0.5 0.531714
233 2 0.243491 0.625 0.577377
248 2 0.131488 0.75 0.532092
205 2 0.040325 0.5 0.532129
229 2 0.0281033 0.875 0.576882
239 2 0.384921 0.75 0.533826
244 2 0.63333 0.75 0.535146
241 2 0.517519 0.875 0.580694
240 2 0.494959 0.625 0.577904
221 2 0.743678 0.625 0.57752
245 2 0.779694 0.875 0.580483
228 2 0.992109 0.625 0.57716
227 2 0.8803 0.75 0.533423
230 3 0.183333 0.375 0.665982
207 2 0.259783 0.25 0.62292
206 2 0.226064 0 0.621923
189 3 0.1 0.125 0.665982
202 2 0.0159264 0.25 0.622897
208 3 0.35 0.125 0.665982
234 2 0.352304 0.5 0.622696
209 3 0.433333 0.375 0.665982
214 2 0.50737 0.25 0.623109
192 3 0.6 0.125 0.665982
216 3 0.683333 0.375 0.665982
195 2 0.767574 0.25 0.623375
188 2 0.958682 8.36248e-17 0.621743
222 2 0.850949 0.5 0.622716
197 3 0.933333 0.375 0.665982
196 3 0.85 0.125 0.665982
231 3 0.266667 0.625 0.665982
246 2 0.140171 0.75 0.62115
225 3 0.1 0.875 0.665982
203 2 0.101796 0.5 0.622534
224 3 0.0166667 0.625 0.665982
247 3 0.35 0.875 0.665982
235 2 0.389014 0.75 0.62162
242 2 0.649508 0.75 0.622065
237 3 0.6 0.875 0.665982
236 3 0.516667 0.625 0.665982
215 2 0.601776 0.5 0.622775
217 3 0.766667 0.625 0.665982
243 3 0.85 0.875 0.665982
223 2 0.896711 0.75 0.621793
