ITEM: TIMESTEP
1432
ITEM: NUMBER OF ATOMS
249
ITEM: BOX BOUNDS pp pp pp
0.0000000000000000e+00 1.1265258452427979e+01
0.0000000000000000e+00 1.0620987524707861e+01
0.0000000000000000e+00 5.1792180038698433e+01
ITEM: ATOMS id type xs ys zs
6 3 0.25 0 0
24 3 0 0 0
25 3 0.0833333 0.25 0
26 1 0.212708 0.125 0.0452737
27 1 0.258547 0.375 0.0436313
52 3 0.166667 0.5 0
46 1 0.00830963 0.375 0.0436884
7 1 0.461697 0.125 0.0450735
12 3 0.5 0 0
13 3 0.583333 0.25 0
32 3 0.333333 0.25 0
33 3 0.416667 0.5 0
34 1 0.507726 0.375 0.043114
2 3 0.75 0 0
3 1 0.968853 0.125 0.0438811
14 1 0.719464 0.125 0.0466883
15 1 0.756675 0.375 0.0430689
18 3 0.833333 0.25 0
19 3 0.916667 0.5 0
40 3 0.666667 0.5 0
47 1 0.0867422 0.625 0.043041
53 3 0.25 0.75 0
62 3 0 0.75 0
63 1 0.132225 0.875 0.0444286
35 1 0.587015 0.625 0.0441153
54 1 0.335474 0.625 0.0435702
55 1 0.380653 0.875 0.0445908
58 3 0.5 0.75 0
59 1 0.624635 0.875 0.0427334
41 3 0.75 0.75 0
42 1 0.837685 0.625 0.0431058
43 1 0.87443 0.875 0.0456852
4 1 0.293789 2.09062e-17 0.0884127
20 1 0.0324437 0 0.08793
21 1 0.127444 0.25 0.0897825
22 1 0.252721 0.125 0.135649
23 1 0.280621 0.375 0.132467
48 1 0.166024 0.5 0.0873517
44 1 0.0290686 0.375 0.132316
5 1 0.49664 0.125 0.133316
8 1 0.556207 0 0.0892755
9 1 0.619463 0.25 0.0881532
28 1 0.375757 0.25 0.0892787
29 1 0.417918 0.5 0.0870549
30 1 0.531315 0.375 0.133141
36 1 0.66754 0.5 0.0875752
1 1 0.996703 0.125 0.135472
10 1 0.747485 0.125 0.126996
11 1 0.781412 0.375 0.133026
16 1 0.878639 0.25 0.0879183
17 1 0.914399 0.5 0.0873847
45 1 0.124194 0.625 0.133249
49 1 0.259122 0.75 0.0889935
61 1 0.143847 0.875 0.130931
60 1 0.0114607 0.75 0.0870447
31 1 0.626591 0.625 0.132583
50 1 0.377226 0.625 0.132335
51 1 0.396845 0.875 0.135285
56 1 0.504499 0.75 0.0892379
57 1 0.652466 0.875 0.135216
37 1 0.754921 0.75 0.0876543
38 1 0.875524 0.625 0.132919
39 1 0.897268 0.875 0.130563
114 1 0.188283 0.5 0.176772
86 1 0.106229 0 0.177335
87 1 0.148689 0.25 0.177245
88 1 0.270929 0.125 0.217814
89 1 0.304833 0.375 0.222531
108 1 0.0554764 0.375 0.221906
66 1 0.0156784 0.125 0.219097
69 1 0.520586 0.125 0.223824
74 1 0.556979 4.18124e-17 0.177334
75 1 0.657406 0.25 0.176946
94 1 0.401354 0.25 0.177767
95 1 0.436511 0.5 0.176616
96 1 0.553256 0.375 0.221077
102 1 0.68833 0.5 0.17704
65 1 0.829652 0 0.177055
76 1 0.769823 0.125 0.225776
77 1 0.802723 0.375 0.221668
80 1 0.900543 0.25 0.178097
81 1 0.938918 0.5 0.176947
125 1 0.173239 0.875 0.222241
115 1 0.276946 0.75 0.175962
109 1 0.150157 0.625 0.221682
124 1 0.0212118 0.75 0.178057
120 1 0.532773 0.75 0.176606
117 1 0.416313 0.875 0.219117
116 1 0.398446 0.625 0.221836
97 1 0.647752 0.625 0.222919
121 1 0.666864 0.875 0.219871
105 1 0.913593 0.875 0.226852
104 1 0.898462 0.625 0.222549
103 1 0.779168 0.75 0.1778
110 1 0.216818 0.5 0.266083
82 1 0.0910619 0 0.263862
83 1 0.184426 0.25 0.2647
84 1 0.304271 0.125 0.310943
85 1 0.326199 0.375 0.310076
106 1 0.0762276 0.375 0.309131
64 1 0.0579526 0.125 0.311415
67 1 0.348919 4.18124e-17 0.264486
68 1 0.556442 0.125 0.314885
70 1 0.612526 0 0.268696
90 1 0.430873 0.25 0.267401
91 1 0.468592 0.5 0.265744
92 1 0.576485 0.375 0.310858
71 1 0.671324 0.25 0.267189
98 1 0.71814 0.5 0.265727
72 1 0.813903 0.125 0.301703
73 1 0.828757 0.375 0.310149
78 1 0.937243 0.25 0.263838
79 1 0.965283 0.5 0.26601
123 1 0.198944 0.875 0.308423
111 1 0.303549 0.75 0.266514
107 1 0.178698 0.625 0.312024
122 1 0.0581565 0.75 0.265875
118 1 0.545133 0.75 0.266125
113 1 0.446499 0.875 0.312809
112 1 0.42924 0.625 0.311899
93 1 0.67624 0.625 0.310899
119 1 0.703752 0.875 0.317461
101 1 0.952768 0.875 0.306898
100 1 0.927093 0.625 0.311477
99 1 0.792802 0.75 0.268177
176 2 0.283193 0.5 0.356081
170 2 0.115951 0.375 0.399168
149 2 0.205162 0.25 0.35448
148 2 0.167504 0 0.356653
129 2 0.0803034 0.125 0.399941
143 2 0.0311724 0.5 0.355625
150 2 0.331568 0.125 0.399085
151 2 0.362667 0.375 0.39997
158 2 0.614112 0.375 0.398212
157 2 0.530792 0.5 0.355698
156 2 0.448558 0.25 0.355675
132 2 0.596565 0.125 0.394581
137 2 0.722394 0.25 0.351715
142 2 0.964367 0.25 0.354359
139 2 0.864588 0.375 0.398273
138 2 0.838742 0.125 0.399915
128 2 0.892022 0 0.353058
187 2 0.238019 0.875 0.402407
177 2 0.321652 0.75 0.356205
171 2 0.193955 0.625 0.399682
186 2 0.0746765 0.75 0.354181
182 2 0.583405 0.75 0.356505
179 2 0.483592 0.875 0.397695
178 2 0.447342 0.625 0.400172
159 2 0.697493 0.625 0.400501
183 2 0.745195 0.875 0.397931
167 2 0.99542 0.875 0.399071
166 2 0.945716 0.625 0.40021
165 2 0.834449 0.75 0.355281
164 2 0.778381 0.5 0.3556
168 2 0.14234 0.375 0.487934
145 2 0.235159 0.25 0.444388
144 2 0.144435 0 0.444143
127 2 0.103691 0.125 0.489145
141 2 0.0481582 0.5 0.443904
146 2 0.357072 0.125 0.489102
147 2 0.394942 0.375 0.487329
130 2 0.39606 4.18124e-17 0.44435
154 2 0.642844 0.375 0.487849
153 2 0.549743 0.5 0.444169
152 2 0.488295 0.25 0.442112
133 2 0.641727 8.36248e-17 0.442285
131 2 0.605196 0.125 0.488912
134 2 0.7348 0.25 0.442973
126 2 0.893969 0 0.443479
160 2 0.798462 0.5 0.444243
140 2 0.985109 0.25 0.444086
136 2 0.891933 0.375 0.487849
135 2 0.852941 0.125 0.488746
185 2 0.265637 0.875 0.488707
172 2 0.298051 0.5 0.444144
169 2 0.205601 0.625 0.488069
184 2 0.10332 0.75 0.445523
163 2 0.010747 0.875 0.489032
173 2 0.357108 0.75 0.444102
180 2 0.605591 0.75 0.443439
175 2 0.516206 0.875 0.489056
174 2 0.454819 0.625 0.488259
155 2 0.703102 0.625 0.488973
181 2 0.760628 0.875 0.488539
162 2 0.953651 0.625 0.488791
161 2 0.854639 0.75 0.444515
232 2 0.154772 0.375 0.576764
211 2 0.259129 0.25 0.532749
210 2 0.165441 0 0.532732
191 2 0.125357 0.125 0.578533
204 2 0.0076019 0.25 0.532759
212 2 0.377335 0.125 0.578837
213 2 0.403355 0.375 0.576981
193 2 0.416485 4.18124e-17 0.533004
220 2 0.654169 0.375 0.577471
219 2 0.546501 0.5 0.531937
218 2 0.509269 0.25 0.533912
198 2 0.662839 8.36248e-17 0.534637
194 2 0.635154 0.125 0.580865
199 2 0.757146 0.25 0.533412
226 2 0.796843 0.5 0.532193
201 2 0.904788 0.375 0.577457
200 2 0.880487 0.125 0.577954
190 2 0.911957 0 0.533257
249 2 0.27798 0.875 0.575889
238 2 0.297319 0.5 0.531656
233 2 0.251067 0.625 0.577372
248 2 0.138354 0.75 0.53205
205 2 0.0470107 0.5 0.532079
229 2 0.0351745 0.875 0.576739
228 2 -0.00029141 0.625 0.577164
239 2 0.391702 0.75 0.533785
244 2 0.640136 0.75 0.535112
241 2 0.524623 0.875 0.580612
240 2 0.50252 0.625 0.577885
221 2 0.751263 0.625 0.577501
245 2 0.786917 0.875 0.580435
227 2 0.887079 0.75 0.533371
230 3 0.191667 0.375 0.665982
207 2 0.2673 0.25 0.622874
206 2 0.234245 0 0.621932
189 3 0.108333 0.125 0.665982
202 2 0.0235271 0.25 0.62287
208 3 0.358333 0.125 0.665982
234 2 0.360297 0.5 0.622703
209 3 0.441667 0.375 0.665982
214 2 0.514901 0.25 0.623057
192 3 0.608333 0.125 0.665982
216 3 0.691667 0.375 0.665982
195 2 0.7752 0.25 0.623351
188 2 0.966877 8.36248e-17 0.621701
222 2 0.858988 0.5 0.622726
197 3 0.941667 0.375 0.665982
196 3 0.858333 0.125 0.665982
231 3 0.275 0.625 0.665982
246 2 0.147802 0.75 0.621121
225 3 0.108333 0.875 0.665982
203 2 0.109788 0.5 0.622548
224 3 0.025 0.625 0.665982
247 3 0.358333 0.875 0.665982
235 2 0.396686 0.75 0.621591
242 2 0.657103 0.75 0.62202
237 3 0.608333 0.875 0.665982
236 3 0.525 0.625 0.665982
215 2 0.609817 0.5 0.622782
217 3 0.775 0.625 0.665982
243 3 0.858333 0.875 0.665982
223 2 0.904358 0.75 0.621751
