ITEM: TIMESTEP
1802
ITEM: NUMBER OF ATOMS
249
ITEM: BOX BOUNDS pp pp pp
0.0000000000000000e+00 1.1265258452427979e+01
0.0000000000000000e+00 1.0620987524707861e+01
0.0000000000000000e+00 5.1792180038698433e+01
ITEM: ATOMS id type xs ys zs
6 3 0.25 0 0
24 3 0 0 0
25 3 0.0833333 0.25 0
26 1 0.215614 0.125 0.0452925
27 1 0.268924 0.375 0.044064
52 3 0.166667 0.5 0
46 1 0.0192189 0.375 0.0441022
7 1 0.465611 0.125 0.0450827
12 3 0.5 0 0
13 3 0.583333 0.25 0
32 3 0.333333 0.25 0
33 3 0.416667 0.5 0
34 1 0.518029 0.375 0.0434341
2 3 0.75 0 0
3 1 0.971269 0.125 0.0438329
14 1 0.722691 0.125 0.0465873
15 1 0.767039 0.375 0.0434205
18 3 0.833333 0.25 0
19 3 0.916667 0.5 0
40 3 0.666667 0.5 0
47 1 0.080585 0.625 0.0430782
53 3 0.25 0.75 0
62 3 0 0.75 0
63 1 0.137954 0.875 0.0443343
54 1 0.329796 0.625 0.0435905
35 1 0.582241 0.625 0.0439932
55 1 0.385727 0.875 0.0445133
58 3 0.5 0.75 0
59 1 0.629904 0.875 0.0430401
41 3 0.75 0.75 0
42 1 0.831989 0.625 0.0429577
43 1 0.879303 0.875 0.0458804
4 1 0.301831 2.09062e-17 0.0882171
20 1 0.0409496 0 0.0875139
21 1 0.136836 0.25 0.0897733
22 1 0.265333 0.125 0.135189
23 1 0.293876 0.375 0.132358
48 1 0.175601 0.5 0.0878321
44 1 0.0412989 0.375 0.13221
1 1 0.00941628 0.125 0.135021
5 1 0.508302 0.125 0.133762
8 1 0.563741 0 0.0896506
9 1 0.62828 0.25 0.0881629
28 1 0.385324 0.25 0.089196
29 1 0.427418 0.5 0.0872426
30 1 0.5442 0.375 0.133037
36 1 0.677276 0.5 0.0876319
10 1 0.759595 0.125 0.126607
11 1 0.794281 0.375 0.13288
16 1 0.887763 0.25 0.0876277
17 1 0.924327 0.5 0.0875894
45 1 0.133139 0.625 0.134137
49 1 0.270277 0.75 0.0894274
61 1 0.158045 0.875 0.131293
60 1 0.0232555 0.75 0.0878629
31 1 0.634895 0.625 0.13283
50 1 0.38613 0.625 0.132613
51 1 0.410762 0.875 0.135275
56 1 0.515776 0.75 0.0894085
57 1 0.666973 0.875 0.135024
37 1 0.766557 0.75 0.087997
38 1 0.883933 0.625 0.133427
39 1 0.912096 0.875 0.130898
114 1 0.212759 0.5 0.17665
86 1 0.120948 0 0.177194
87 1 0.165403 0.25 0.176646
88 1 0.288025 0.125 0.217633
89 1 0.327427 0.375 0.222544
108 1 0.078981 0.375 0.221191
66 1 0.0331033 0.125 0.21872
69 1 0.540831 0.125 0.223518
74 1 0.573422 4.18124e-17 0.177116
94 1 0.416711 0.25 0.177825
95 1 0.459584 0.5 0.176447
96 1 0.57525 0.375 0.220585
75 1 0.67424 0.25 0.176565
102 1 0.710598 0.5 0.176739
65 1 0.845329 0 0.176929
76 1 0.789194 0.125 0.22518
77 1 0.824594 0.375 0.221186
80 1 0.917535 0.25 0.177813
81 1 0.961225 0.5 0.176791
125 1 0.197252 0.875 0.220978
115 1 0.294836 0.75 0.175915
109 1 0.169329 0.625 0.221453
124 1 0.037161 0.75 0.178265
120 1 0.549246 0.75 0.176872
117 1 0.438557 0.875 0.219254
116 1 0.417526 0.625 0.221834
97 1 0.667908 0.625 0.222972
121 1 0.688061 0.875 0.220149
105 1 0.935607 0.875 0.227099
104 1 0.917714 0.625 0.222479
103 1 0.795367 0.75 0.177876
110 1 0.245683 0.5 0.265712
82 1 0.12088 0 0.262771
83 1 0.21167 0.25 0.264858
84 1 0.335024 0.125 0.310955
106 1 0.104984 0.375 0.308805
64 1 0.0881648 0.125 0.310844
85 1 0.355955 0.375 0.309794
67 1 0.377333 4.18124e-17 0.264555
68 1 0.586983 0.125 0.315098
70 1 0.64003 0 0.268866
90 1 0.457746 0.25 0.267436
91 1 0.498092 0.5 0.265304
92 1 0.606073 0.375 0.310544
71 1 0.697497 0.25 0.266812
98 1 0.748006 0.5 0.265397
72 1 0.843879 0.125 0.300841
73 1 0.858464 0.375 0.309472
78 1 0.964677 0.25 0.263028
79 1 0.995246 0.5 0.265274
123 1 0.228538 0.875 0.308242
111 1 0.327885 0.75 0.266143
107 1 0.208418 0.625 0.311559
122 1 0.0838587 0.75 0.265267
118 1 0.569311 0.75 0.265959
113 1 0.476638 0.875 0.312538
112 1 0.459078 0.625 0.311402
93 1 0.705674 0.625 0.310584
119 1 0.734452 0.875 0.31749
101 1 0.982939 0.875 0.306222
100 1 0.956821 0.625 0.310866
99 1 0.81654 0.75 0.268301
176 2 0.316828 0.5 0.355747
170 2 0.149137 0.375 0.398644
149 2 0.237657 0.25 0.353957
148 2 0.199688 0 0.356522
129 2 0.116396 0.125 0.399966
143 2 0.0645023 0.5 0.355344
142 2 -0.00267797 0.25 0.354083
150 2 0.367346 0.125 0.39852
151 2 0.395391 0.375 0.399591
158 2 0.647686 0.375 0.397837
157 2 0.564325 0.5 0.355502
156 2 0.480945 0.25 0.355637
132 2 0.63282 0.125 0.393986
137 2 0.755854 0.25 0.35122
139 2 0.897778 0.375 0.397921
138 2 0.874856 0.125 0.399626
128 2 0.924401 0 0.352452
187 2 0.275757 0.875 0.402045
171 2 0.231328 0.625 0.399219
186 2 0.107039 0.75 0.353575
167 2 0.0322165 0.875 0.398734
177 2 0.354387 0.75 0.355857
182 2 0.615715 0.75 0.356099
179 2 0.520771 0.875 0.397292
178 2 0.484577 0.625 0.399877
159 2 0.735227 0.625 0.400024
183 2 0.781647 0.875 0.397549
166 2 0.983461 0.625 0.399803
165 2 0.867381 0.75 0.35477
164 2 0.81223 0.5 0.355209
168 2 0.185443 0.375 0.487647
145 2 0.273198 0.25 0.444053
144 2 0.185511 0 0.443775
127 2 0.143408 0.125 0.488793
141 2 0.0919232 0.5 0.4437
140 2 0.0228897 0.25 0.443742
146 2 0.397244 0.125 0.488654
147 2 0.438645 0.375 0.486828
130 2 0.437156 4.18124e-17 0.443788
153 2 0.593634 0.5 0.443938
152 2 0.526499 0.25 0.44149
131 2 0.645096 0.125 0.488571
154 2 0.68644 0.375 0.487455
133 2 0.682962 8.36248e-17 0.441859
134 2 0.772801 0.25 0.442669
126 2 0.935084 0 0.443071
160 2 0.842079 0.5 0.444044
136 2 0.935504 0.375 0.487528
135 2 0.892795 0.125 0.488459
185 2 0.308427 0.875 0.488159
169 2 0.248084 0.625 0.487791
184 2 0.142471 0.75 0.445041
163 2 0.0531594 0.875 0.488624
172 2 0.341711 0.5 0.444125
173 2 0.39587 0.75 0.443663
180 2 0.64424 0.75 0.44302
175 2 0.558938 0.875 0.488625
174 2 0.497646 0.625 0.487996
155 2 0.746009 0.625 0.48873
181 2 0.803105 0.875 0.488093
162 2 0.996611 0.625 0.488398
161 2 0.893404 0.75 0.444065
232 2 0.203025 0.375 0.576506
211 2 0.305129 0.25 0.532247
210 2 0.21325 0 0.531806
191 2 0.174565 0.125 0.577898
204 2 0.0534104 0.25 0.532514
212 2 0.425592 0.125 0.577939
213 2 0.451641 0.375 0.57668
193 2 0.464276 4.18124e-17 0.532172
219 2 0.590681 0.5 0.531549
218 2 0.555365 0.25 0.533396
194 2 0.682636 0.125 0.579974
220 2 0.70281 0.375 0.577164
198 2 0.711058 8.36248e-17 0.533848
199 2 0.803297 0.25 0.53299
226 2 0.841063 0.5 0.531746
201 2 0.953096 0.375 0.57721
200 2 0.929019 0.125 0.577523
190 2 0.95945 0 0.532535
249 2 0.325419 0.875 0.575478
233 2 0.30241 0.625 0.57738
248 2 0.183997 0.75 0.531859
205 2 0.0909712 0.5 0.531734
229 2 0.0827964 0.875 0.575726
228 2 0.0511849 0.625 0.577272
238 2 0.341477 0.5 0.531247
239 2 0.436678 0.75 0.533467
241 2 0.572497 0.875 0.579871
240 2 0.553769 0.625 0.577798
244 2 0.685311 0.75 0.534834
221 2 0.802756 0.625 0.57739
245 2 0.835507 0.875 0.579864
227 2 0.932389 0.75 0.53297
230 3 0.25 0.375 0.665982
207 2 0.317243 0.25 0.622348
206 2 0.290891 0 0.621981
189 3 0.166667 0.125 0.665982
202 2 0.0742646 0.25 0.622525
188 2 0.0236939 8.36248e-17 0.621505
208 3 0.416667 0.125 0.665982
234 2 0.415342 0.5 0.622789
209 3 0.5 0.375 0.665982
214 2 0.564971 0.25 0.622498
192 3 0.666667 0.125 0.665982
216 3 0.75 0.375 0.665982
195 2 0.82613 0.25 0.623039
222 2 0.914464 0.5 0.622836
197 3 1 0.375 0.665982
196 3 0.916667 0.125 0.665982
231 3 0.333333 0.625 0.665982
246 2 0.200221 0.75 0.620923
225 3 0.166667 0.875 0.665982
203 2 0.164864 0.5 0.622666
224 3 0.0833333 0.625 0.665982
247 3 0.416667 0.875 0.665982
235 2 0.449408 0.75 0.621373
237 3 0.666667 0.875 0.665982
236 3 0.583333 0.625 0.665982
215 2 0.665317 0.5 0.622862
242 2 0.709122 0.75 0.621665
217 3 0.833333 0.625 0.665982
243 3 0.916667 0.875 0.665982
223 2 0.956748 0.75 0.621441
