ITEM: TIMESTEP
692
ITEM: NUMBER OF ATOMS
249
ITEM: BOX BOUNDS pp pp pp
0.0000000000000000e+00 1.1265258452427979e+01
0.0000000000000000e+00 1.0620987524707861e+01
0.0000000000000000e+00 5.1792180038698433e+01
ITEM: ATOMS id type xs ys zs
6 3 0.25 0 0
24 3 0 0 0
25 3 0.0833333 0.25 0
26 1 0.207765 0.125 0.0451735
27 1 0.248634 0.375 0.0435099
52 3 0.166667 0.5 0
7 1 0.455475 0.125 0.045034
12 3 0.5 0 0
13 3 0.583333 0.25 0
32 3 0.333333 0.25 0
33 3 0.416667 0.5 0
34 1 0.497805 0.375 0.0430887
46 1 0.998138 0.375 0.0436712
2 3 0.75 0 0
3 1 0.964319 0.125 0.0438402
14 1 0.715609 0.125 0.0463739
15 1 0.74694 0.375 0.0429674
18 3 0.833333 0.25 0
19 3 0.916667 0.5 0
40 3 0.666667 0.5 0
47 1 0.088503 0.625 0.0428667
53 3 0.25 0.75 0
62 3 0 0.75 0
63 1 0.125697 0.875 0.0446564
35 1 0.587269 0.625 0.0436949
54 1 0.337126 0.625 0.0433406
55 1 0.374092 0.875 0.044603
58 3 0.5 0.75 0
59 1 0.617607 0.875 0.0422358
41 3 0.75 0.75 0
42 1 0.838759 0.625 0.0427384
43 1 0.867973 0.875 0.0456056
4 1 0.28748 2.09062e-17 0.0891447
20 1 0.020399 0 0.0884791
21 1 0.114061 0.25 0.0900656
22 1 0.230158 0.125 0.136657
23 1 0.259083 0.375 0.132856
48 1 0.14879 0.5 0.0875051
44 1 0.00808567 0.375 0.132389
5 1 0.475403 0.125 0.131288
8 1 0.556326 0 0.0879011
9 1 0.606682 0.25 0.08788
28 1 0.360901 0.25 0.0894832
29 1 0.400168 0.5 0.0875352
30 1 0.509974 0.375 0.133578
36 1 0.648765 0.5 0.0879518
1 1 0.975245 0.125 0.136071
10 1 0.727986 0.125 0.128064
11 1 0.759639 0.375 0.132969
16 1 0.863904 0.25 0.0883624
17 1 0.896444 0.5 0.0874492
45 1 0.107421 0.625 0.13287
49 1 0.241679 0.75 0.0886501
61 1 0.121373 0.875 0.130797
31 1 0.609292 0.625 0.132705
50 1 0.359329 0.625 0.132555
51 1 0.370871 0.875 0.13617
56 1 0.486639 0.75 0.0892361
57 1 0.626498 0.875 0.135394
60 1 0.995008 0.75 0.0866513
37 1 0.737351 0.75 0.0875609
38 1 0.859036 0.625 0.132628
39 1 0.871693 0.875 0.129889
114 1 0.155548 0.5 0.177263
86 1 0.0794884 0 0.177845
87 1 0.1198 0.25 0.177915
88 1 0.239938 0.125 0.218477
89 1 0.270396 0.375 0.222497
108 1 0.0200759 0.375 0.222777
69 1 0.48675 0.125 0.223873
74 1 0.528926 4.18124e-17 0.177386
75 1 0.628828 0.25 0.177239
94 1 0.374928 0.25 0.177544
95 1 0.404566 0.5 0.177345
96 1 0.519572 0.375 0.221318
102 1 0.657314 0.5 0.177643
65 1 0.802862 0 0.177387
66 1 0.983163 0.125 0.219263
76 1 0.73768 0.125 0.22567
77 1 0.769041 0.375 0.222369
80 1 0.871702 0.25 0.178097
81 1 0.907335 0.5 0.177338
125 1 0.136238 0.875 0.224156
115 1 0.247144 0.75 0.177106
109 1 0.119956 0.625 0.222178
120 1 0.50475 0.75 0.177111
117 1 0.381476 0.875 0.219748
116 1 0.36961 0.625 0.222577
97 1 0.61804 0.625 0.223105
121 1 0.632179 0.875 0.219876
124 1 0.994246 0.75 0.177968
105 1 0.878915 0.875 0.226576
104 1 0.869751 0.625 0.222557
103 1 0.751839 0.75 0.177853
67 1 0.313718 4.18124e-17 0.266309
110 1 0.169069 0.5 0.267173
82 1 0.0456399 0 0.265641
83 1 0.134013 0.25 0.264986
84 1 0.24408 0.125 0.31135
85 1 0.273043 0.375 0.310321
106 1 0.024334 0.375 0.309923
68 1 0.498191 0.125 0.312055
70 1 0.581253 0 0.266893
71 1 0.624267 0.25 0.266896
90 1 0.379943 0.25 0.26599
91 1 0.419725 0.5 0.267118
92 1 0.522351 0.375 0.310912
98 1 0.668474 0.5 0.267007
64 1 1.0005 0.125 0.312749
72 1 0.760412 0.125 0.303036
73 1 0.775269 0.375 0.311046
78 1 0.887051 0.25 0.265144
79 1 0.916079 0.5 0.267301
123 1 0.143873 0.875 0.308915
111 1 0.260697 0.75 0.267698
107 1 0.126328 0.625 0.313044
122 1 0.014475 0.75 0.26713
118 1 0.502581 0.75 0.268312
113 1 0.386795 0.875 0.316289
112 1 0.375686 0.625 0.313182
93 1 0.62473 0.625 0.311918
119 1 0.64422 0.875 0.316708
101 1 0.894854 0.875 0.307283
100 1 0.874847 0.625 0.312415
99 1 0.752722 0.75 0.267901
176 2 0.22264 0.5 0.35644
170 2 0.0570143 0.375 0.400162
151 2 0.305078 0.375 0.400455
150 2 0.265081 0.125 0.399362
149 2 0.14531 0.25 0.355609
148 2 0.104962 0 0.356828
129 2 0.012333 0.125 0.399973
158 2 0.554941 0.375 0.398858
157 2 0.470858 0.5 0.355929
156 2 0.389952 0.25 0.355244
137 2 0.660544 0.25 0.352057
132 2 0.528688 0.125 0.395106
143 2 0.970581 0.5 0.356085
142 2 0.903494 0.25 0.355181
139 2 0.805549 0.375 0.399011
138 2 0.770527 0.125 0.40033
128 2 0.829986 0 0.353894
187 2 0.16903 0.875 0.402709
177 2 0.259829 0.75 0.357634
171 2 0.123277 0.625 0.400496
186 2 0.0151286 0.75 0.354962
182 2 0.525296 0.75 0.357522
179 2 0.415695 0.875 0.397846
178 2 0.378019 0.625 0.400455
159 2 0.627214 0.625 0.401147
183 2 0.677965 0.875 0.398347
167 2 0.927427 0.875 0.399597
166 2 0.874949 0.625 0.40069
165 2 0.774298 0.75 0.356011
164 2 0.717899 0.5 0.356181
168 2 0.0643742 0.375 0.488311
147 2 0.315648 0.375 0.48813
146 2 0.281195 0.125 0.48928
145 2 0.164868 0.25 0.444544
144 2 0.071183 0 0.444624
130 2 0.322944 4.18124e-17 0.444767
127 2 0.0282565 0.125 0.489403
154 2 0.56383 0.375 0.4886
153 2 0.469991 0.5 0.444761
152 2 0.417251 0.25 0.442665
134 2 0.663832 0.25 0.443293
133 2 0.568254 8.36248e-17 0.442493
131 2 0.52947 0.125 0.489003
126 2 0.820476 0 0.443991
160 2 0.718718 0.5 0.444695
141 2 0.967986 0.5 0.444383
140 2 0.914475 0.25 0.444546
136 2 0.812838 0.375 0.488546
135 2 0.777002 0.125 0.488942
185 2 0.188076 0.875 0.4891
173 2 0.28641 0.75 0.444222
172 2 0.219232 0.5 0.444192
169 2 0.131726 0.625 0.488405
184 2 0.0319878 0.75 0.446009
180 2 0.534822 0.75 0.443689
175 2 0.438296 0.875 0.489186
174 2 0.380183 0.625 0.48862
155 2 0.628582 0.625 0.48925
181 2 0.683 0.875 0.488861
163 2 0.933485 0.875 0.489397
162 2 0.878686 0.625 0.489335
161 2 0.783926 0.75 0.444891
232 2 0.0679102 0.375 0.577017
213 2 0.316289 0.375 0.577243
212 2 0.289929 0.125 0.579486
211 2 0.175885 0.25 0.533223
210 2 0.0821209 0 0.533593
191 2 0.0367958 0.125 0.57885
193 2 0.332817 4.18124e-17 0.533589
220 2 0.566593 0.375 0.57779
219 2 0.467821 0.5 0.532506
218 2 0.42597 0.25 0.534451
198 2 0.578771 8.36248e-17 0.535101
194 2 0.548665 0.125 0.581562
199 2 0.673681 0.25 0.53389
226 2 0.71812 0.5 0.532973
204 2 0.924732 0.25 0.532889
201 2 0.818019 0.375 0.577674
200 2 0.792842 0.125 0.578028
190 2 0.829069 0 0.533738
249 2 0.192297 0.875 0.576251
239 2 0.307379 0.75 0.533986
238 2 0.218812 0.5 0.532288
233 2 0.160032 0.625 0.577358
248 2 0.0537025 0.75 0.532158
244 2 0.555648 0.75 0.535104
241 2 0.438835 0.875 0.580949
240 2 0.411834 0.625 0.578009
221 2 0.660172 0.625 0.577725
245 2 0.699669 0.875 0.580527
229 2 0.949405 0.875 0.577861
228 2 0.908667 0.625 0.576998
227 2 0.802681 0.75 0.53372
205 2 0.969056 0.5 0.53261
234 2 0.265009 0.5 0.622551
230 3 0.0916667 0.375 0.665982
208 3 0.258333 0.125 0.665982
207 2 0.175096 0.25 0.623175
206 2 0.137315 0 0.621733
189 3 0.00833333 0.125 0.665982
209 3 0.341667 0.375 0.665982
216 3 0.591667 0.375 0.665982
214 2 0.422639 0.25 0.623404
192 3 0.508333 0.125 0.665982
195 2 0.68247 0.25 0.623428
188 2 0.870014 8.36248e-17 0.621943
222 2 0.763445 0.5 0.622536
202 2 0.930856 0.25 0.622994
197 3 0.841667 0.375 0.665982
196 3 0.758333 0.125 0.665982
247 3 0.258333 0.875 0.665982
235 2 0.30453 0.75 0.621877
231 3 0.175 0.625 0.665982
246 2 0.0559745 0.75 0.621432
225 3 0.00833333 0.875 0.665982
203 2 0.0144999 0.5 0.62236
242 2 0.56573 0.75 0.622539
237 3 0.508333 0.875 0.665982
236 3 0.425 0.625 0.665982
215 2 0.514119 0.5 0.622694
217 3 0.675 0.625 0.665982
243 3 0.758333 0.875 0.665982
224 3 0.925 0.625 0.665982
223 2 0.8126 0.75 0.622184
