ITEM: TIMESTEP
174
ITEM: NUMBER OF ATOMS
112
ITEM: BOX BOUNDS pp pp pp
0.0000000000000000e+00 1.0160888410139860e+01
0.0000000000000000e+00 1.0995765577807459e+01
0.0000000000000000e+00 3.4125699996899996e+01
ITEM: ATOMS id type xs ys zs
3 1 0.147311 0.0603843 0.104631
15 1 0.47831 0.10351 0
16 1 0.232636 0.171172 0.0327167
17 1 0.478197 0.237417 0.0676354
18 1 0.225974 0.310384 0.104631
31 1 0.647311 0.0603843 0.104631
43 1 0.97831 0.10351 0
44 1 0.732636 0.171172 0.0327167
45 1 0.978197 0.237417 0.0676354
46 1 0.725974 0.310384 0.104631
1 1 0.394975 0.35351 0
2 1 0.140649 0.421172 0.0327167
4 1 0.395088 0.487417 0.0676354
59 1 0.147311 0.560384 0.104631
71 1 0.47831 0.60351 0
29 1 0.894975 0.35351 0
30 1 0.640649 0.421172 0.0327167
32 1 0.895088 0.487417 0.0676354
87 1 0.647311 0.560384 0.104631
99 1 0.97831 0.60351 0
57 1 0.394975 0.85351 0
58 1 0.140649 0.921172 0.0327167
60 1 0.395088 0.987417 0.0676354
72 1 0.232636 0.671172 0.0327167
73 1 0.478197 0.737417 0.0676354
74 1 0.225974 0.810384 0.104631
85 1 0.894975 0.85351 0
86 1 0.640649 0.921172 0.0327167
88 1 0.895088 0.987417 0.0676354
100 1 0.732636 0.671172 0.0327167
101 1 0.978197 0.737417 0.0676354
102 1 0.725974 0.810384 0.104631
5 1 0.396718 0.134179 0.141585
6 1 0.146437 0.206866 0.176887
7 1 0.396146 0.279723 0.214112
20 1 0.477139 0.0297229 0.214112
33 1 0.896718 0.134179 0.141585
34 1 0.646437 0.206866 0.176887
35 1 0.896146 0.279723 0.214112
48 1 0.977139 0.0297229 0.214112
19 1 0.476567 0.384179 0.141585
21 1 0.226848 0.456866 0.176887
61 1 0.396718 0.634179 0.141585
76 1 0.477139 0.529723 0.214112
47 1 0.976567 0.384179 0.141585
49 1 0.726848 0.456866 0.176887
89 1 0.896718 0.634179 0.141585
104 1 0.977139 0.529723 0.214112
62 1 0.146437 0.706866 0.176887
63 1 0.396146 0.779723 0.214112
75 1 0.476567 0.884179 0.141585
77 1 0.226848 0.956866 0.176887
90 1 0.646437 0.706866 0.176887
91 1 0.896146 0.779723 0.214112
103 1 0.976567 0.884179 0.141585
105 1 0.726848 0.956866 0.176887
65 1 0.396437 0.275226 0.295648
64 1 0.146146 0.202369 0.258424
80 1 0.226567 0.0979129 0.330951
79 1 0.476848 0.0252257 0.295648
93 1 0.896437 0.275226 0.295648
92 1 0.646146 0.202369 0.258424
108 1 0.726567 0.0979129 0.330951
107 1 0.976848 0.0252257 0.295648
67 1 0.146718 0.347913 0.330951
22 1 0.227139 0.452369 0.258424
23 1 0.476848 0.525226 0.295648
24 1 0.226567 0.597913 0.330951
95 1 0.646718 0.347913 0.330951
50 1 0.727139 0.452369 0.258424
51 1 0.976848 0.525226 0.295648
52 1 0.726567 0.597913 0.330951
8 1 0.146146 0.702369 0.258424
9 1 0.396437 0.775226 0.295648
11 1 0.146718 0.847913 0.330951
78 1 0.227139 0.952369 0.258424
36 1 0.646146 0.702369 0.258424
37 1 0.896437 0.775226 0.295648
39 1 0.646718 0.847913 0.330951
106 1 0.727139 0.952369 0.258424
84 1 0.482636 0.310918 0.439819
82 1 0.228197 0.244674 0.4049
81 1 0.475974 0.171707 0.367904
69 1 0.390649 0.0609184 0.439819
112 1 0.982636 0.310918 0.439819
110 1 0.728197 0.244674 0.4049
109 1 0.975974 0.171707 0.367904
97 1 0.890649 0.0609184 0.439819
10 1 0.397311 0.421707 0.367904
12 1 0.145088 0.494673 0.4049
13 1 0.390649 0.560918 0.439819
38 1 0.897311 0.421707 0.367904
40 1 0.645088 0.494673 0.4049
41 1 0.890649 0.560918 0.439819
25 1 0.475974 0.671707 0.367904
26 1 0.228197 0.744674 0.4049
28 1 0.482636 0.810918 0.439819
66 1 0.397311 0.921707 0.367904
68 1 0.145088 0.994673 0.4049
53 1 0.975974 0.671707 0.367904
54 1 0.728197 0.744674 0.4049
56 1 0.982636 0.810918 0.439819
94 1 0.897311 0.921707 0.367904
96 1 0.645088 0.994673 0.4049
70 1 0.144975 0.12858 0.472535
98 1 0.644975 0.12858 0.472535
27 1 0.22831 0.37858 0.472535
14 1 0.144975 0.62858 0.472535
55 1 0.72831 0.37858 0.472535
42 1 0.644975 0.62858 0.472535
83 1 0.22831 0.87858 0.472535
111 1 0.72831 0.87858 0.472535
