ITEM: TIMESTEP
57
ITEM: NUMBER OF ATOMS
112
ITEM: BOX BOUNDS pp pp pp
0.0000000000000000e+00 1.2328198381184540e+01
0.0000000000000000e+00 1.3409956460377600e+01
0.0000000000000000e+00 3.7693498223115995e+01
ITEM: ATOMS id type xs ys zs
16 1 0.24829 0.191205 0.0492253
15 1 0.47831 0.10351 0
17 1 0.489104 0.239694 0.0774799
43 1 0.97831 0.10351 0
44 1 0.74829 0.191205 0.0492253
45 1 0.989104 0.239694 0.0774799
2 1 0.124995 0.441205 0.0492253
1 1 0.394975 0.35351 0
4 1 0.384181 0.489694 0.0774799
30 1 0.624995 0.441205 0.0492253
71 1 0.47831 0.60351 0
29 1 0.894975 0.35351 0
32 1 0.884181 0.489694 0.0774799
99 1 0.97831 0.60351 0
58 1 0.124995 0.941205 0.0492253
72 1 0.24829 0.691205 0.0492253
57 1 0.394975 0.85351 0
60 1 0.384181 0.989694 0.0774799
73 1 0.489104 0.739694 0.0774799
86 1 0.624995 0.941205 0.0492253
85 1 0.894975 0.85351 0
88 1 0.884181 0.989694 0.0774799
100 1 0.74829 0.691205 0.0492253
101 1 0.989104 0.739694 0.0774799
3 1 0.146288 0.0717794 0.121484
6 1 0.140061 0.212428 0.195735
18 1 0.226997 0.321779 0.121484
5 1 0.393869 0.139076 0.153128
31 1 0.646288 0.0717794 0.121484
34 1 0.640061 0.212428 0.195735
33 1 0.893869 0.139076 0.153128
46 1 0.726997 0.321779 0.121484
21 1 0.233224 0.462428 0.195735
59 1 0.146288 0.571779 0.121484
19 1 0.479416 0.389076 0.153128
61 1 0.393869 0.639076 0.153128
87 1 0.646288 0.571779 0.121484
47 1 0.979416 0.389076 0.153128
49 1 0.733224 0.462428 0.195735
89 1 0.893869 0.639076 0.153128
62 1 0.140061 0.712428 0.195735
74 1 0.226997 0.821779 0.121484
77 1 0.233224 0.962428 0.195735
75 1 0.479416 0.889076 0.153128
90 1 0.640061 0.712428 0.195735
102 1 0.726997 0.821779 0.121484
103 1 0.979416 0.889076 0.153128
105 1 0.733224 0.962428 0.195735
22 1 0.232494 0.169302 0.280229
7 1 0.390791 0.279457 0.227386
20 1 0.482494 0.0294574 0.227386
23 1 0.483224 0.236332 0.31188
35 1 0.890791 0.279457 0.227386
48 1 0.982494 0.0294574 0.227386
50 1 0.732494 0.169302 0.280229
51 1 0.983224 0.236332 0.31188
8 1 0.140791 0.419302 0.280229
9 1 0.390061 0.486332 0.31188
36 1 0.640791 0.419302 0.280229
76 1 0.482494 0.529457 0.227386
37 1 0.890061 0.486332 0.31188
104 1 0.982494 0.529457 0.227386
78 1 0.232494 0.669302 0.280229
64 1 0.140791 0.919302 0.280229
63 1 0.390791 0.779457 0.227386
65 1 0.390061 0.986332 0.31188
79 1 0.483224 0.736332 0.31188
92 1 0.640791 0.919302 0.280229
106 1 0.732494 0.669302 0.280229
91 1 0.890791 0.779457 0.227386
93 1 0.890061 0.986332 0.31188
107 1 0.983224 0.736332 0.31188
12 1 0.134182 0.209063 0.430134
24 1 0.229417 0.309683 0.354486
67 1 0.143868 0.0596827 0.354486
10 1 0.396287 0.126979 0.38613
40 1 0.634182 0.209063 0.430134
95 1 0.643868 0.0596827 0.354486
38 1 0.896287 0.126979 0.38613
52 1 0.729417 0.309683 0.354486
11 1 0.143868 0.559683 0.354486
26 1 0.239103 0.459063 0.430134
25 1 0.476998 0.376979 0.38613
39 1 0.643868 0.559683 0.354486
66 1 0.396287 0.626979 0.38613
53 1 0.976998 0.376979 0.38613
54 1 0.739103 0.459063 0.430134
94 1 0.896287 0.626979 0.38613
68 1 0.134182 0.709063 0.430134
80 1 0.229417 0.809683 0.354486
82 1 0.239103 0.959063 0.430134
96 1 0.634182 0.709063 0.430134
81 1 0.476998 0.876979 0.38613
108 1 0.729417 0.809683 0.354486
109 1 0.976998 0.876979 0.38613
110 1 0.739103 0.959063 0.430134
27 1 0.22831 0.0952467 0.507614
13 1 0.374996 0.257554 0.458389
84 1 0.498289 0.00755358 0.458389
41 1 0.874996 0.257554 0.458389
55 1 0.72831 0.0952467 0.507614
112 1 0.998289 0.00755358 0.458389
14 1 0.144975 0.345247 0.507614
83 1 0.22831 0.595247 0.507614
42 1 0.644975 0.345247 0.507614
28 1 0.498289 0.507554 0.458389
56 1 0.998289 0.507554 0.458389
111 1 0.72831 0.595247 0.507614
70 1 0.144975 0.845247 0.507614
69 1 0.374996 0.757554 0.458389
98 1 0.644975 0.845247 0.507614
97 1 0.874996 0.757554 0.458389
