ITEM: TIMESTEP
101
ITEM: NUMBER OF ATOMS
112
ITEM: BOX BOUNDS pp pp pp
0.0000000000000000e+00 1.0160888410139860e+01
0.0000000000000000e+00 1.0995765577807459e+01
0.0000000000000000e+00 3.4125699996899996e+01
ITEM: ATOMS id type xs ys zs
3 1 0.147311 0.0603843 0.105705
15 1 0.47831 0.10351 0
16 1 0.232636 0.171172 0.0332906
17 1 0.478197 0.237417 0.0675486
18 1 0.225974 0.310384 0.105705
31 1 0.647311 0.0603843 0.105705
43 1 0.97831 0.10351 0
44 1 0.732636 0.171172 0.0332906
45 1 0.978197 0.237417 0.0675486
46 1 0.725974 0.310384 0.105705
1 1 0.394975 0.35351 0
2 1 0.140649 0.421172 0.0332905
4 1 0.395088 0.487417 0.0675486
59 1 0.147311 0.560384 0.105705
71 1 0.47831 0.60351 0
29 1 0.894975 0.35351 0
30 1 0.640649 0.421172 0.0332905
32 1 0.895088 0.487417 0.0675486
87 1 0.647311 0.560384 0.105705
99 1 0.97831 0.60351 0
57 1 0.394975 0.85351 0
58 1 0.140649 0.921172 0.0332905
60 1 0.395088 0.987417 0.0675486
72 1 0.232636 0.671172 0.0332906
73 1 0.478197 0.737417 0.0675486
74 1 0.225974 0.810384 0.105705
85 1 0.894975 0.85351 0
86 1 0.640649 0.921172 0.0332905
88 1 0.895088 0.987417 0.0675486
100 1 0.732636 0.671172 0.0332906
101 1 0.978197 0.737417 0.0675486
102 1 0.725974 0.810384 0.105705
5 1 0.396718 0.134179 0.141095
6 1 0.146437 0.206866 0.178839
7 1 0.396146 0.279723 0.211004
20 1 0.477139 0.0297229 0.211004
33 1 0.896718 0.134179 0.141095
34 1 0.646437 0.206866 0.178839
35 1 0.896146 0.279723 0.211004
48 1 0.977139 0.0297229 0.211004
19 1 0.476567 0.384179 0.141095
21 1 0.226848 0.456866 0.178839
61 1 0.396718 0.634179 0.141095
76 1 0.477139 0.529723 0.211004
47 1 0.976567 0.384179 0.141095
49 1 0.726848 0.456866 0.178839
89 1 0.896718 0.634179 0.141095
104 1 0.977139 0.529723 0.211004
62 1 0.146437 0.706866 0.178839
63 1 0.396146 0.779723 0.211004
75 1 0.476567 0.884179 0.141095
77 1 0.226848 0.956866 0.178839
90 1 0.646437 0.706866 0.178839
91 1 0.896146 0.779723 0.211004
103 1 0.976567 0.884179 0.141095
105 1 0.726848 0.956866 0.178839
22 1 0.227139 0.285702 0.261532
67 1 0.146718 0.181246 0.331441
65 1 0.396437 0.108559 0.293696
64 1 0.146146 0.0357023 0.261532
50 1 0.727139 0.285702 0.261532
95 1 0.646718 0.181246 0.331441
93 1 0.896437 0.108559 0.293696
92 1 0.646146 0.0357023 0.261532
23 1 0.476848 0.358559 0.293696
24 1 0.226567 0.431246 0.331441
8 1 0.146146 0.535702 0.261532
9 1 0.396437 0.608559 0.293696
51 1 0.976848 0.358559 0.293696
52 1 0.726567 0.431246 0.331441
36 1 0.646146 0.535702 0.261532
37 1 0.896437 0.608559 0.293696
11 1 0.146718 0.681246 0.331441
78 1 0.227139 0.785702 0.261532
79 1 0.476848 0.858559 0.293696
80 1 0.226567 0.931246 0.331441
39 1 0.646718 0.681246 0.331441
106 1 0.727139 0.785702 0.261532
107 1 0.976848 0.858559 0.293696
108 1 0.726567 0.931246 0.331441
10 1 0.397311 0.25504 0.36683
12 1 0.145088 0.328007 0.404987
84 1 0.482636 0.144252 0.439245
82 1 0.228197 0.0780075 0.404987
81 1 0.475974 0.0050404 0.36683
38 1 0.897311 0.25504 0.36683
40 1 0.645088 0.328007 0.404987
112 1 0.982636 0.144252 0.439245
110 1 0.728197 0.0780075 0.404987
109 1 0.975974 0.0050404 0.36683
13 1 0.390649 0.394252 0.439245
25 1 0.475974 0.50504 0.36683
26 1 0.228197 0.578007 0.404987
28 1 0.482636 0.644252 0.439245
41 1 0.890649 0.394252 0.439245
53 1 0.975974 0.50504 0.36683
54 1 0.728197 0.578007 0.404987
56 1 0.982636 0.644252 0.439245
66 1 0.397311 0.75504 0.36683
68 1 0.145088 0.828007 0.404987
69 1 0.390649 0.894252 0.439245
94 1 0.897311 0.75504 0.36683
96 1 0.645088 0.828007 0.404987
97 1 0.890649 0.894252 0.439245
27 1 0.22831 0.211913 0.472535
55 1 0.72831 0.211913 0.472535
14 1 0.144975 0.461913 0.472535
42 1 0.644975 0.461913 0.472535
83 1 0.22831 0.711913 0.472535
70 1 0.144975 0.961913 0.472535
111 1 0.72831 0.711913 0.472535
98 1 0.644975 0.961913 0.472535
