ITEM: TIMESTEP
131
ITEM: NUMBER OF ATOMS
112
ITEM: BOX BOUNDS pp pp pp
0.0000000000000000e+00 1.0160888410139860e+01
0.0000000000000000e+00 1.0995765577807459e+01
0.0000000000000000e+00 3.4125699996899996e+01
ITEM: ATOMS id type xs ys zs
3 1 0.147311 0.0603843 0.105827
15 1 0.47831 0.10351 0
16 1 0.232636 0.171172 0.0334689
17 1 0.478197 0.237417 0.0678406
18 1 0.225974 0.310384 0.105827
31 1 0.647311 0.0603843 0.105827
43 1 0.97831 0.10351 0
44 1 0.732636 0.171172 0.0334689
45 1 0.978197 0.237417 0.0678406
46 1 0.725974 0.310384 0.105827
1 1 0.394975 0.35351 0
2 1 0.140649 0.421172 0.0334689
4 1 0.395088 0.487417 0.0678406
59 1 0.147311 0.560384 0.105827
71 1 0.47831 0.60351 0
29 1 0.894975 0.35351 0
30 1 0.640649 0.421172 0.0334689
32 1 0.895088 0.487417 0.0678406
87 1 0.647311 0.560384 0.105827
99 1 0.97831 0.60351 0
57 1 0.394975 0.85351 0
58 1 0.140649 0.921172 0.0334689
60 1 0.395088 0.987417 0.0678406
72 1 0.232636 0.671172 0.0334689
73 1 0.478197 0.737417 0.0678406
74 1 0.225974 0.810384 0.105827
85 1 0.894975 0.85351 0
86 1 0.640649 0.921172 0.0334689
88 1 0.895088 0.987417 0.0678406
100 1 0.732636 0.671172 0.0334689
101 1 0.978197 0.737417 0.0678406
102 1 0.725974 0.810384 0.105827
5 1 0.396718 0.134179 0.141794
6 1 0.146437 0.206866 0.179477
7 1 0.396146 0.279723 0.212406
20 1 0.477139 0.0297229 0.212406
33 1 0.896718 0.134179 0.141794
34 1 0.646437 0.206866 0.179477
35 1 0.896146 0.279723 0.212406
48 1 0.977139 0.0297229 0.212406
19 1 0.476567 0.384179 0.141794
21 1 0.226848 0.456866 0.179477
61 1 0.396718 0.634179 0.141794
76 1 0.477139 0.529723 0.212406
47 1 0.976567 0.384179 0.141794
49 1 0.726848 0.456866 0.179477
89 1 0.896718 0.634179 0.141794
104 1 0.977139 0.529723 0.212406
62 1 0.146437 0.706866 0.179477
63 1 0.396146 0.779723 0.212406
75 1 0.476567 0.884179 0.141794
77 1 0.226848 0.956866 0.179477
90 1 0.646437 0.706866 0.179477
91 1 0.896146 0.779723 0.212406
103 1 0.976567 0.884179 0.141794
105 1 0.726848 0.956866 0.179477
67 1 0.146718 0.247913 0.330742
65 1 0.396437 0.175226 0.293058
64 1 0.146146 0.102369 0.26013
95 1 0.646718 0.247913 0.330742
93 1 0.896437 0.175226 0.293058
92 1 0.646146 0.102369 0.26013
22 1 0.227139 0.352369 0.26013
23 1 0.476848 0.425226 0.293058
24 1 0.226567 0.497913 0.330742
8 1 0.146146 0.602369 0.26013
50 1 0.727139 0.352369 0.26013
51 1 0.976848 0.425226 0.293058
52 1 0.726567 0.497913 0.330742
36 1 0.646146 0.602369 0.26013
9 1 0.396437 0.675226 0.293058
11 1 0.146718 0.747913 0.330742
78 1 0.227139 0.852369 0.26013
79 1 0.476848 0.925226 0.293058
80 1 0.226567 0.997913 0.330742
37 1 0.896437 0.675226 0.293058
39 1 0.646718 0.747913 0.330742
106 1 0.727139 0.852369 0.26013
107 1 0.976848 0.925226 0.293058
108 1 0.726567 0.997913 0.330742
10 1 0.397311 0.321707 0.366708
84 1 0.482636 0.210918 0.439067
82 1 0.228197 0.144674 0.404695
81 1 0.475974 0.0717071 0.366708
38 1 0.897311 0.321707 0.366708
112 1 0.982636 0.210918 0.439067
110 1 0.728197 0.144674 0.404695
109 1 0.975974 0.0717071 0.366708
12 1 0.145088 0.394673 0.404695
13 1 0.390649 0.460918 0.439067
25 1 0.475974 0.571707 0.366708
26 1 0.228197 0.644674 0.404695
40 1 0.645088 0.394673 0.404695
41 1 0.890649 0.460918 0.439067
53 1 0.975974 0.571707 0.366708
54 1 0.728197 0.644674 0.404695
28 1 0.482636 0.710918 0.439067
66 1 0.397311 0.821707 0.366708
68 1 0.145088 0.894673 0.404695
69 1 0.390649 0.960918 0.439067
56 1 0.982636 0.710918 0.439067
94 1 0.897311 0.821707 0.366708
96 1 0.645088 0.894673 0.404695
97 1 0.890649 0.960918 0.439067
27 1 0.22831 0.27858 0.472535
70 1 0.144975 0.02858 0.472535
55 1 0.72831 0.27858 0.472535
98 1 0.644975 0.02858 0.472535
14 1 0.144975 0.52858 0.472535
42 1 0.644975 0.52858 0.472535
83 1 0.22831 0.77858 0.472535
111 1 0.72831 0.77858 0.472535
