ITEM: TIMESTEP
114
ITEM: NUMBER OF ATOMS
112
ITEM: BOX BOUNDS pp pp pp
0.0000000000000000e+00 1.2328198381184540e+01
0.0000000000000000e+00 1.3409956460377600e+01
0.0000000000000000e+00 3.7693498223115995e+01
ITEM: ATOMS id type xs ys zs
16 1 0.24829 0.191205 0.043554
15 1 0.47831 0.10351 0
17 1 0.489104 0.239694 0.0736032
43 1 0.97831 0.10351 0
44 1 0.74829 0.191205 0.043554
45 1 0.989104 0.239694 0.0736032
2 1 0.124995 0.441205 0.043554
1 1 0.394975 0.35351 0
4 1 0.384181 0.489694 0.0736032
30 1 0.624995 0.441205 0.043554
71 1 0.47831 0.60351 0
29 1 0.894975 0.35351 0
32 1 0.884181 0.489694 0.0736032
99 1 0.97831 0.60351 0
58 1 0.124995 0.941205 0.043554
72 1 0.24829 0.691205 0.043554
57 1 0.394975 0.85351 0
60 1 0.384181 0.989694 0.0736032
73 1 0.489104 0.739694 0.0736032
86 1 0.624995 0.941205 0.043554
85 1 0.894975 0.85351 0
88 1 0.884181 0.989694 0.0736032
100 1 0.74829 0.691205 0.043554
101 1 0.989104 0.739694 0.0736032
3 1 0.146288 0.0717794 0.114004
6 1 0.140061 0.212428 0.185677
18 1 0.226997 0.321779 0.114004
5 1 0.393869 0.139076 0.146415
31 1 0.646288 0.0717794 0.114004
34 1 0.640061 0.212428 0.185677
33 1 0.893869 0.139076 0.146415
46 1 0.726997 0.321779 0.114004
21 1 0.233224 0.462428 0.185677
59 1 0.146288 0.571779 0.114004
19 1 0.479416 0.389076 0.146415
61 1 0.393869 0.639076 0.146415
87 1 0.646288 0.571779 0.114004
47 1 0.979416 0.389076 0.146415
49 1 0.733224 0.462428 0.185677
89 1 0.893869 0.639076 0.146415
62 1 0.140061 0.712428 0.185677
74 1 0.226997 0.821779 0.114004
77 1 0.233224 0.962428 0.185677
75 1 0.479416 0.889076 0.146415
90 1 0.640061 0.712428 0.185677
102 1 0.726997 0.821779 0.114004
103 1 0.979416 0.889076 0.146415
105 1 0.733224 0.962428 0.185677
22 1 0.232494 0.252635 0.290479
64 1 0.140791 0.00263503 0.290479
7 1 0.390791 0.279457 0.217135
20 1 0.482494 0.0294574 0.217135
23 1 0.483224 0.319665 0.321937
65 1 0.390061 0.0696649 0.321937
92 1 0.640791 0.00263503 0.290479
35 1 0.890791 0.279457 0.217135
48 1 0.982494 0.0294574 0.217135
50 1 0.732494 0.252635 0.290479
51 1 0.983224 0.319665 0.321937
93 1 0.890061 0.0696649 0.321937
8 1 0.140791 0.502635 0.290479
9 1 0.390061 0.569665 0.321937
36 1 0.640791 0.502635 0.290479
76 1 0.482494 0.529457 0.217135
37 1 0.890061 0.569665 0.321937
104 1 0.982494 0.529457 0.217135
78 1 0.232494 0.752635 0.290479
63 1 0.390791 0.779457 0.217135
79 1 0.483224 0.819665 0.321937
106 1 0.732494 0.752635 0.290479
91 1 0.890791 0.779457 0.217135
107 1 0.983224 0.819665 0.321937
12 1 0.134182 0.292396 0.434011
67 1 0.143868 0.143016 0.3612
82 1 0.239103 0.0423962 0.434011
10 1 0.396287 0.210313 0.393611
40 1 0.634182 0.292396 0.434011
95 1 0.643868 0.143016 0.3612
38 1 0.896287 0.210313 0.393611
110 1 0.739103 0.0423962 0.434011
24 1 0.229417 0.393016 0.3612
11 1 0.143868 0.643016 0.3612
26 1 0.239103 0.542396 0.434011
25 1 0.476998 0.460313 0.393611
39 1 0.643868 0.643016 0.3612
52 1 0.729417 0.393016 0.3612
53 1 0.976998 0.460313 0.393611
54 1 0.739103 0.542396 0.434011
68 1 0.134182 0.792396 0.434011
80 1 0.229417 0.893016 0.3612
66 1 0.396287 0.710313 0.393611
96 1 0.634182 0.792396 0.434011
81 1 0.476998 0.960313 0.393611
94 1 0.896287 0.710313 0.393611
108 1 0.729417 0.893016 0.3612
109 1 0.976998 0.960313 0.393611
27 1 0.22831 0.17858 0.507614
84 1 0.498289 0.0908869 0.46406
55 1 0.72831 0.17858 0.507614
112 1 0.998289 0.0908869 0.46406
14 1 0.144975 0.42858 0.507614
13 1 0.374996 0.340887 0.46406
42 1 0.644975 0.42858 0.507614
28 1 0.498289 0.590887 0.46406
41 1 0.874996 0.340887 0.46406
56 1 0.998289 0.590887 0.46406
83 1 0.22831 0.67858 0.507614
70 1 0.144975 0.92858 0.507614
69 1 0.374996 0.840887 0.46406
98 1 0.644975 0.92858 0.507614
111 1 0.72831 0.67858 0.507614
97 1 0.874996 0.840887 0.46406
