ITEM: TIMESTEP
243
ITEM: NUMBER OF ATOMS
112
ITEM: BOX BOUNDS pp pp pp
0.0000000000000000e+00 1.2328198381184540e+01
0.0000000000000000e+00 1.3409956460377600e+01
0.0000000000000000e+00 3.7693498223115995e+01
ITEM: ATOMS id type xs ys zs
16 1 0.24829 0.191205 0.0475201
15 1 0.47831 0.10351 0
17 1 0.489104 0.239694 0.07679
43 1 0.97831 0.10351 0
44 1 0.74829 0.191205 0.0475201
45 1 0.989104 0.239694 0.07679
2 1 0.124995 0.441205 0.0475201
1 1 0.394975 0.35351 0
4 1 0.384181 0.489694 0.07679
30 1 0.624995 0.441205 0.0475201
71 1 0.47831 0.60351 0
29 1 0.894975 0.35351 0
32 1 0.884181 0.489694 0.07679
99 1 0.97831 0.60351 0
58 1 0.124995 0.941205 0.0475201
72 1 0.24829 0.691205 0.0475201
57 1 0.394975 0.85351 0
60 1 0.384181 0.989694 0.07679
73 1 0.489104 0.739694 0.07679
86 1 0.624995 0.941205 0.0475201
85 1 0.894975 0.85351 0
88 1 0.884181 0.989694 0.07679
100 1 0.74829 0.691205 0.0475201
101 1 0.989104 0.739694 0.07679
3 1 0.146288 0.0717794 0.119142
6 1 0.140061 0.212428 0.192008
18 1 0.226997 0.321779 0.119142
5 1 0.393869 0.139076 0.152066
31 1 0.646288 0.0717794 0.119142
34 1 0.640061 0.212428 0.192008
33 1 0.893869 0.139076 0.152066
46 1 0.726997 0.321779 0.119142
21 1 0.233224 0.462428 0.192008
59 1 0.146288 0.571779 0.119142
19 1 0.479416 0.389076 0.152066
61 1 0.393869 0.639076 0.152066
87 1 0.646288 0.571779 0.119142
47 1 0.979416 0.389076 0.152066
49 1 0.733224 0.462428 0.192008
89 1 0.893869 0.639076 0.152066
62 1 0.140061 0.712428 0.192008
74 1 0.226997 0.821779 0.119142
77 1 0.233224 0.962428 0.192008
75 1 0.479416 0.889076 0.152066
90 1 0.640061 0.712428 0.192008
102 1 0.726997 0.821779 0.119142
103 1 0.979416 0.889076 0.152066
105 1 0.733224 0.962428 0.192008
64 1 0.140791 0.252635 0.28004
78 1 0.232494 0.00263503 0.28004
7 1 0.390791 0.279457 0.227574
20 1 0.482494 0.0294574 0.227574
65 1 0.390061 0.319665 0.315607
92 1 0.640791 0.252635 0.28004
79 1 0.483224 0.0696649 0.315607
35 1 0.890791 0.279457 0.227574
48 1 0.982494 0.0294574 0.227574
93 1 0.890061 0.319665 0.315607
107 1 0.983224 0.0696649 0.315607
106 1 0.732494 0.00263503 0.28004
22 1 0.232494 0.502635 0.28004
76 1 0.482494 0.529457 0.227574
23 1 0.483224 0.569665 0.315607
104 1 0.982494 0.529457 0.227574
50 1 0.732494 0.502635 0.28004
51 1 0.983224 0.569665 0.315607
8 1 0.140791 0.752635 0.28004
36 1 0.640791 0.752635 0.28004
63 1 0.390791 0.779457 0.227574
9 1 0.390061 0.819665 0.315607
91 1 0.890791 0.779457 0.227574
37 1 0.890061 0.819665 0.315607
82 1 0.239103 0.292396 0.430824
80 1 0.229417 0.143016 0.355548
68 1 0.134182 0.0423962 0.430824
81 1 0.476998 0.210313 0.388472
96 1 0.634182 0.0423962 0.430824
110 1 0.739103 0.292396 0.430824
109 1 0.976998 0.210313 0.388472
108 1 0.729417 0.143016 0.355548
67 1 0.143868 0.393016 0.355548
12 1 0.134182 0.542396 0.430824
24 1 0.229417 0.643016 0.355548
95 1 0.643868 0.393016 0.355548
10 1 0.396287 0.460313 0.388472
40 1 0.634182 0.542396 0.430824
38 1 0.896287 0.460313 0.388472
52 1 0.729417 0.643016 0.355548
26 1 0.239103 0.792396 0.430824
11 1 0.143868 0.893016 0.355548
25 1 0.476998 0.710313 0.388472
39 1 0.643868 0.893016 0.355548
66 1 0.396287 0.960313 0.388472
53 1 0.976998 0.710313 0.388472
54 1 0.739103 0.792396 0.430824
94 1 0.896287 0.960313 0.388472
70 1 0.144975 0.17858 0.507614
98 1 0.644975 0.17858 0.507614
69 1 0.374996 0.0908869 0.460094
97 1 0.874996 0.0908869 0.460094
27 1 0.22831 0.42858 0.507614
84 1 0.498289 0.340887 0.460094
13 1 0.374996 0.590887 0.460094
112 1 0.998289 0.340887 0.460094
55 1 0.72831 0.42858 0.507614
41 1 0.874996 0.590887 0.460094
14 1 0.144975 0.67858 0.507614
83 1 0.22831 0.92858 0.507614
42 1 0.644975 0.67858 0.507614
28 1 0.498289 0.840887 0.460094
56 1 0.998289 0.840887 0.460094
111 1 0.72831 0.92858 0.507614
