ITEM: TIMESTEP
124
ITEM: NUMBER OF ATOMS
112
ITEM: BOX BOUNDS pp pp pp
0.0000000000000000e+00 1.2328198381184540e+01
0.0000000000000000e+00 1.3409956460377600e+01
0.0000000000000000e+00 3.7693498223115995e+01
ITEM: ATOMS id type xs ys zs
16 1 0.24829 0.191205 0.0440369
15 1 0.47831 0.10351 0
17 1 0.489104 0.239694 0.0738881
43 1 0.97831 0.10351 0
44 1 0.74829 0.191205 0.0440369
45 1 0.989104 0.239694 0.0738881
2 1 0.124995 0.441205 0.0440369
1 1 0.394975 0.35351 0
4 1 0.384181 0.489694 0.0738881
30 1 0.624995 0.441205 0.0440369
71 1 0.47831 0.60351 0
29 1 0.894975 0.35351 0
32 1 0.884181 0.489694 0.0738881
99 1 0.97831 0.60351 0
58 1 0.124995 0.941205 0.0440369
72 1 0.24829 0.691205 0.0440369
57 1 0.394975 0.85351 0
60 1 0.384181 0.989694 0.0738881
73 1 0.489104 0.739694 0.0738881
86 1 0.624995 0.941205 0.0440369
85 1 0.894975 0.85351 0
88 1 0.884181 0.989694 0.0738881
100 1 0.74829 0.691205 0.0440369
101 1 0.989104 0.739694 0.0738881
3 1 0.146288 0.0717794 0.114658
6 1 0.140061 0.212428 0.186639
18 1 0.226997 0.321779 0.114658
5 1 0.393869 0.139076 0.146866
31 1 0.646288 0.0717794 0.114658
34 1 0.640061 0.212428 0.186639
7 1 0.390791 0.279457 0.21761
20 1 0.482494 0.0294574 0.21761
33 1 0.893869 0.139076 0.146866
46 1 0.726997 0.321779 0.114658
35 1 0.890791 0.279457 0.21761
48 1 0.982494 0.0294574 0.21761
21 1 0.233224 0.462428 0.186639
59 1 0.146288 0.571779 0.114658
19 1 0.479416 0.389076 0.146866
61 1 0.393869 0.639076 0.146866
87 1 0.646288 0.571779 0.114658
76 1 0.482494 0.529457 0.21761
47 1 0.979416 0.389076 0.146866
49 1 0.733224 0.462428 0.186639
89 1 0.893869 0.639076 0.146866
104 1 0.982494 0.529457 0.21761
62 1 0.140061 0.712428 0.186639
74 1 0.226997 0.821779 0.114658
77 1 0.233224 0.962428 0.186639
75 1 0.479416 0.889076 0.146866
90 1 0.640061 0.712428 0.186639
63 1 0.390791 0.779457 0.21761
102 1 0.726997 0.821779 0.114658
103 1 0.979416 0.889076 0.146866
105 1 0.733224 0.962428 0.186639
91 1 0.890791 0.779457 0.21761
22 1 0.232494 0.269302 0.290004
64 1 0.140791 0.0193017 0.290004
65 1 0.390061 0.0863315 0.320976
92 1 0.640791 0.0193017 0.290004
50 1 0.732494 0.269302 0.290004
93 1 0.890061 0.0863315 0.320976
8 1 0.140791 0.519302 0.290004
23 1 0.483224 0.336332 0.320976
9 1 0.390061 0.586332 0.320976
36 1 0.640791 0.519302 0.290004
51 1 0.983224 0.336332 0.320976
37 1 0.890061 0.586332 0.320976
78 1 0.232494 0.769302 0.290004
79 1 0.483224 0.836332 0.320976
106 1 0.732494 0.769302 0.290004
107 1 0.983224 0.836332 0.320976
12 1 0.134182 0.309063 0.433726
67 1 0.143868 0.159683 0.360748
82 1 0.239103 0.0590629 0.433726
10 1 0.396287 0.226979 0.392956
40 1 0.634182 0.309063 0.433726
95 1 0.643868 0.159683 0.360748
38 1 0.896287 0.226979 0.392956
110 1 0.739103 0.0590629 0.433726
24 1 0.229417 0.409683 0.360748
11 1 0.143868 0.659683 0.360748
26 1 0.239103 0.559063 0.433726
25 1 0.476998 0.476979 0.392956
39 1 0.643868 0.659683 0.360748
52 1 0.729417 0.409683 0.360748
53 1 0.976998 0.476979 0.392956
54 1 0.739103 0.559063 0.433726
68 1 0.134182 0.809063 0.433726
80 1 0.229417 0.909683 0.360748
66 1 0.396287 0.726979 0.392956
96 1 0.634182 0.809063 0.433726
81 1 0.476998 0.976979 0.392956
94 1 0.896287 0.726979 0.392956
108 1 0.729417 0.909683 0.360748
109 1 0.976998 0.976979 0.392956
27 1 0.22831 0.195247 0.507614
84 1 0.498289 0.107554 0.463578
55 1 0.72831 0.195247 0.507614
112 1 0.998289 0.107554 0.463578
14 1 0.144975 0.445247 0.507614
13 1 0.374996 0.357554 0.463578
42 1 0.644975 0.445247 0.507614
28 1 0.498289 0.607554 0.463578
41 1 0.874996 0.357554 0.463578
56 1 0.998289 0.607554 0.463578
83 1 0.22831 0.695247 0.507614
70 1 0.144975 0.945247 0.507614
69 1 0.374996 0.857554 0.463578
98 1 0.644975 0.945247 0.507614
111 1 0.72831 0.695247 0.507614
97 1 0.874996 0.857554 0.463578
