ITEM: TIMESTEP
82
ITEM: NUMBER OF ATOMS
112
ITEM: BOX BOUNDS pp pp pp
0.0000000000000000e+00 1.2328198381184540e+01
0.0000000000000000e+00 1.3409956460377600e+01
0.0000000000000000e+00 3.7693498223115995e+01
ITEM: ATOMS id type xs ys zs
16 1 0.24829 0.191205 0.0485
15 1 0.47831 0.10351 0
17 1 0.489104 0.239694 0.0767238
43 1 0.97831 0.10351 0
44 1 0.74829 0.191205 0.0485
45 1 0.989104 0.239694 0.0767238
2 1 0.124995 0.441205 0.0485
1 1 0.394975 0.35351 0
4 1 0.384181 0.489694 0.0767238
30 1 0.624995 0.441205 0.0485
71 1 0.47831 0.60351 0
29 1 0.894975 0.35351 0
32 1 0.884181 0.489694 0.0767238
99 1 0.97831 0.60351 0
58 1 0.124995 0.941205 0.0485
72 1 0.24829 0.691205 0.0485
57 1 0.394975 0.85351 0
60 1 0.384181 0.989694 0.0767238
73 1 0.489104 0.739694 0.0767238
86 1 0.624995 0.941205 0.0485
85 1 0.894975 0.85351 0
88 1 0.884181 0.989694 0.0767238
100 1 0.74829 0.691205 0.0485
101 1 0.989104 0.739694 0.0767238
3 1 0.146288 0.0717794 0.120615
6 1 0.140061 0.212428 0.194789
18 1 0.226997 0.321779 0.120615
5 1 0.393869 0.139076 0.151631
31 1 0.646288 0.0717794 0.120615
34 1 0.640061 0.212428 0.194789
33 1 0.893869 0.139076 0.151631
46 1 0.726997 0.321779 0.120615
21 1 0.233224 0.462428 0.194789
59 1 0.146288 0.571779 0.120615
19 1 0.479416 0.389076 0.151631
61 1 0.393869 0.639076 0.151631
87 1 0.646288 0.571779 0.120615
47 1 0.979416 0.389076 0.151631
49 1 0.733224 0.462428 0.194789
89 1 0.893869 0.639076 0.151631
62 1 0.140061 0.712428 0.194789
74 1 0.226997 0.821779 0.120615
77 1 0.233224 0.962428 0.194789
75 1 0.479416 0.889076 0.151631
90 1 0.640061 0.712428 0.194789
102 1 0.726997 0.821779 0.120615
103 1 0.979416 0.889076 0.151631
105 1 0.733224 0.962428 0.194789
22 1 0.232494 0.219302 0.282583
7 1 0.390791 0.279457 0.225032
20 1 0.482494 0.0294574 0.225032
23 1 0.483224 0.286332 0.312825
65 1 0.390061 0.0363315 0.312825
35 1 0.890791 0.279457 0.225032
48 1 0.982494 0.0294574 0.225032
50 1 0.732494 0.219302 0.282583
51 1 0.983224 0.286332 0.312825
93 1 0.890061 0.0363315 0.312825
8 1 0.140791 0.469302 0.282583
9 1 0.390061 0.536332 0.312825
36 1 0.640791 0.469302 0.282583
76 1 0.482494 0.529457 0.225032
37 1 0.890061 0.536332 0.312825
104 1 0.982494 0.529457 0.225032
78 1 0.232494 0.719302 0.282583
64 1 0.140791 0.969302 0.282583
63 1 0.390791 0.779457 0.225032
79 1 0.483224 0.786332 0.312825
92 1 0.640791 0.969302 0.282583
106 1 0.732494 0.719302 0.282583
91 1 0.890791 0.779457 0.225032
107 1 0.983224 0.786332 0.312825
12 1 0.134182 0.259063 0.43089
67 1 0.143868 0.109683 0.355983
82 1 0.239103 0.00906291 0.43089
10 1 0.396287 0.176979 0.387
40 1 0.634182 0.259063 0.43089
95 1 0.643868 0.109683 0.355983
38 1 0.896287 0.176979 0.387
110 1 0.739103 0.00906291 0.43089
24 1 0.229417 0.359683 0.355983
11 1 0.143868 0.609683 0.355983
26 1 0.239103 0.509063 0.43089
25 1 0.476998 0.426979 0.387
39 1 0.643868 0.609683 0.355983
52 1 0.729417 0.359683 0.355983
53 1 0.976998 0.426979 0.387
54 1 0.739103 0.509063 0.43089
68 1 0.134182 0.759063 0.43089
80 1 0.229417 0.859683 0.355983
66 1 0.396287 0.676979 0.387
96 1 0.634182 0.759063 0.43089
81 1 0.476998 0.926979 0.387
94 1 0.896287 0.676979 0.387
108 1 0.729417 0.859683 0.355983
109 1 0.976998 0.926979 0.387
27 1 0.22831 0.145247 0.507614
13 1 0.374996 0.307554 0.459115
84 1 0.498289 0.0575536 0.459115
41 1 0.874996 0.307554 0.459115
55 1 0.72831 0.145247 0.507614
112 1 0.998289 0.0575536 0.459115
14 1 0.144975 0.395247 0.507614
83 1 0.22831 0.645247 0.507614
42 1 0.644975 0.395247 0.507614
28 1 0.498289 0.557554 0.459115
56 1 0.998289 0.557554 0.459115
111 1 0.72831 0.645247 0.507614
70 1 0.144975 0.895247 0.507614
69 1 0.374996 0.807554 0.459115
98 1 0.644975 0.895247 0.507614
97 1 0.874996 0.807554 0.459115
