ITEM: TIMESTEP
164
ITEM: NUMBER OF ATOMS
112
ITEM: BOX BOUNDS pp pp pp
0.0000000000000000e+00 1.2328198381184540e+01
0.0000000000000000e+00 1.3409956460377600e+01
0.0000000000000000e+00 3.7693498223115995e+01
ITEM: ATOMS id type xs ys zs
16 1 0.24829 0.191205 0.0464163
15 1 0.47831 0.10351 0
17 1 0.489104 0.239694 0.075547
43 1 0.97831 0.10351 0
44 1 0.74829 0.191205 0.0464163
45 1 0.989104 0.239694 0.075547
2 1 0.124995 0.441205 0.0464163
1 1 0.394975 0.35351 0
4 1 0.384181 0.489694 0.075547
30 1 0.624995 0.441205 0.0464163
71 1 0.47831 0.60351 0
29 1 0.894975 0.35351 0
32 1 0.884181 0.489694 0.075547
99 1 0.97831 0.60351 0
58 1 0.124995 0.941205 0.0464163
72 1 0.24829 0.691205 0.0464163
57 1 0.394975 0.85351 0
60 1 0.384181 0.989694 0.075547
73 1 0.489104 0.739694 0.075547
86 1 0.624995 0.941205 0.0464163
85 1 0.894975 0.85351 0
88 1 0.884181 0.989694 0.075547
100 1 0.74829 0.691205 0.0464163
101 1 0.989104 0.739694 0.075547
3 1 0.146288 0.0717794 0.117806
6 1 0.140061 0.212428 0.190949
18 1 0.226997 0.321779 0.117806
5 1 0.393869 0.139076 0.149604
31 1 0.646288 0.0717794 0.117806
34 1 0.640061 0.212428 0.190949
7 1 0.390791 0.279457 0.222682
20 1 0.482494 0.0294574 0.222682
33 1 0.893869 0.139076 0.149604
46 1 0.726997 0.321779 0.117806
35 1 0.890791 0.279457 0.222682
48 1 0.982494 0.0294574 0.222682
21 1 0.233224 0.462428 0.190949
59 1 0.146288 0.571779 0.117806
19 1 0.479416 0.389076 0.149604
61 1 0.393869 0.639076 0.149604
87 1 0.646288 0.571779 0.117806
76 1 0.482494 0.529457 0.222682
47 1 0.979416 0.389076 0.149604
49 1 0.733224 0.462428 0.190949
89 1 0.893869 0.639076 0.149604
104 1 0.982494 0.529457 0.222682
62 1 0.140061 0.712428 0.190949
74 1 0.226997 0.821779 0.117806
77 1 0.233224 0.962428 0.190949
75 1 0.479416 0.889076 0.149604
90 1 0.640061 0.712428 0.190949
63 1 0.390791 0.779457 0.222682
102 1 0.726997 0.821779 0.117806
103 1 0.979416 0.889076 0.149604
105 1 0.733224 0.962428 0.190949
91 1 0.890791 0.779457 0.222682
64 1 0.140791 0.0859684 0.284932
65 1 0.390061 0.152998 0.316666
92 1 0.640791 0.0859684 0.284932
93 1 0.890061 0.152998 0.316666
22 1 0.232494 0.335968 0.284932
8 1 0.140791 0.585968 0.284932
23 1 0.483224 0.402998 0.316666
9 1 0.390061 0.652998 0.316666
36 1 0.640791 0.585968 0.284932
50 1 0.732494 0.335968 0.284932
51 1 0.983224 0.402998 0.316666
37 1 0.890061 0.652998 0.316666
78 1 0.232494 0.835968 0.284932
79 1 0.483224 0.902998 0.316666
106 1 0.732494 0.835968 0.284932
107 1 0.983224 0.902998 0.316666
67 1 0.143868 0.226349 0.358011
82 1 0.239103 0.12573 0.432067
10 1 0.396287 0.293646 0.389808
95 1 0.643868 0.226349 0.358011
81 1 0.476998 0.043646 0.389808
38 1 0.896287 0.293646 0.389808
110 1 0.739103 0.12573 0.432067
109 1 0.976998 0.043646 0.389808
12 1 0.134182 0.37573 0.432067
24 1 0.229417 0.476349 0.358011
26 1 0.239103 0.62573 0.432067
40 1 0.634182 0.37573 0.432067
25 1 0.476998 0.543646 0.389808
52 1 0.729417 0.476349 0.358011
53 1 0.976998 0.543646 0.389808
54 1 0.739103 0.62573 0.432067
11 1 0.143868 0.726349 0.358011
68 1 0.134182 0.87573 0.432067
80 1 0.229417 0.976349 0.358011
39 1 0.643868 0.726349 0.358011
66 1 0.396287 0.793646 0.389808
96 1 0.634182 0.87573 0.432067
94 1 0.896287 0.793646 0.389808
108 1 0.729417 0.976349 0.358011
27 1 0.22831 0.261913 0.507614
70 1 0.144975 0.0119133 0.507614
84 1 0.498289 0.17422 0.461198
98 1 0.644975 0.0119133 0.507614
55 1 0.72831 0.261913 0.507614
112 1 0.998289 0.17422 0.461198
14 1 0.144975 0.511913 0.507614
13 1 0.374996 0.42422 0.461198
42 1 0.644975 0.511913 0.507614
41 1 0.874996 0.42422 0.461198
83 1 0.22831 0.761913 0.507614
28 1 0.498289 0.67422 0.461198
69 1 0.374996 0.92422 0.461198
56 1 0.998289 0.67422 0.461198
111 1 0.72831 0.761913 0.507614
97 1 0.874996 0.92422 0.461198
