ITEM: TIMESTEP
133
ITEM: NUMBER OF ATOMS
112
ITEM: BOX BOUNDS pp pp pp
0.0000000000000000e+00 1.2328198381184540e+01
0.0000000000000000e+00 1.3409956460377600e+01
0.0000000000000000e+00 3.7693498223115995e+01
ITEM: ATOMS id type xs ys zs
16 1 0.24829 0.191205 0.0444676
15 1 0.47831 0.10351 0
17 1 0.489104 0.239694 0.0741703
43 1 0.97831 0.10351 0
44 1 0.74829 0.191205 0.0444676
45 1 0.989104 0.239694 0.0741703
2 1 0.124995 0.441205 0.0444676
1 1 0.394975 0.35351 0
4 1 0.384181 0.489694 0.0741703
30 1 0.624995 0.441205 0.0444676
71 1 0.47831 0.60351 0
29 1 0.894975 0.35351 0
32 1 0.884181 0.489694 0.0741703
99 1 0.97831 0.60351 0
58 1 0.124995 0.941205 0.0444676
72 1 0.24829 0.691205 0.0444676
57 1 0.394975 0.85351 0
60 1 0.384181 0.989694 0.0741703
73 1 0.489104 0.739694 0.0741703
86 1 0.624995 0.941205 0.0444676
85 1 0.894975 0.85351 0
88 1 0.884181 0.989694 0.0741703
100 1 0.74829 0.691205 0.0444676
101 1 0.989104 0.739694 0.0741703
3 1 0.146288 0.0717794 0.115238
6 1 0.140061 0.212428 0.187434
18 1 0.226997 0.321779 0.115238
5 1 0.393869 0.139076 0.147321
31 1 0.646288 0.0717794 0.115238
34 1 0.640061 0.212428 0.187434
7 1 0.390791 0.279457 0.218295
20 1 0.482494 0.0294574 0.218295
33 1 0.893869 0.139076 0.147321
46 1 0.726997 0.321779 0.115238
35 1 0.890791 0.279457 0.218295
48 1 0.982494 0.0294574 0.218295
21 1 0.233224 0.462428 0.187434
59 1 0.146288 0.571779 0.115238
19 1 0.479416 0.389076 0.147321
61 1 0.393869 0.639076 0.147321
87 1 0.646288 0.571779 0.115238
76 1 0.482494 0.529457 0.218295
47 1 0.979416 0.389076 0.147321
49 1 0.733224 0.462428 0.187434
89 1 0.893869 0.639076 0.147321
104 1 0.982494 0.529457 0.218295
62 1 0.140061 0.712428 0.187434
74 1 0.226997 0.821779 0.115238
77 1 0.233224 0.962428 0.187434
75 1 0.479416 0.889076 0.147321
90 1 0.640061 0.712428 0.187434
63 1 0.390791 0.779457 0.218295
102 1 0.726997 0.821779 0.115238
103 1 0.979416 0.889076 0.147321
105 1 0.733224 0.962428 0.187434
91 1 0.890791 0.779457 0.218295
22 1 0.232494 0.285968 0.289319
64 1 0.140791 0.0359684 0.289319
65 1 0.390061 0.102998 0.32018
92 1 0.640791 0.0359684 0.289319
50 1 0.732494 0.285968 0.289319
93 1 0.890061 0.102998 0.32018
8 1 0.140791 0.535968 0.289319
23 1 0.483224 0.352998 0.32018
9 1 0.390061 0.602998 0.32018
36 1 0.640791 0.535968 0.289319
51 1 0.983224 0.352998 0.32018
37 1 0.890061 0.602998 0.32018
78 1 0.232494 0.785968 0.289319
79 1 0.483224 0.852998 0.32018
106 1 0.732494 0.785968 0.289319
107 1 0.983224 0.852998 0.32018
12 1 0.134182 0.32573 0.433444
67 1 0.143868 0.176349 0.360294
82 1 0.239103 0.0757296 0.433444
10 1 0.396287 0.243646 0.392376
40 1 0.634182 0.32573 0.433444
95 1 0.643868 0.176349 0.360294
38 1 0.896287 0.243646 0.392376
110 1 0.739103 0.0757296 0.433444
24 1 0.229417 0.426349 0.360294
26 1 0.239103 0.57573 0.433444
25 1 0.476998 0.493646 0.392376
52 1 0.729417 0.426349 0.360294
53 1 0.976998 0.493646 0.392376
54 1 0.739103 0.57573 0.433444
11 1 0.143868 0.676349 0.360294
68 1 0.134182 0.82573 0.433444
80 1 0.229417 0.926349 0.360294
39 1 0.643868 0.676349 0.360294
66 1 0.396287 0.743646 0.392376
96 1 0.634182 0.82573 0.433444
81 1 0.476998 0.993646 0.392376
94 1 0.896287 0.743646 0.392376
108 1 0.729417 0.926349 0.360294
109 1 0.976998 0.993646 0.392376
27 1 0.22831 0.211913 0.507614
84 1 0.498289 0.12422 0.463147
55 1 0.72831 0.211913 0.507614
112 1 0.998289 0.12422 0.463147
14 1 0.144975 0.461913 0.507614
13 1 0.374996 0.37422 0.463147
42 1 0.644975 0.461913 0.507614
28 1 0.498289 0.62422 0.463147
41 1 0.874996 0.37422 0.463147
56 1 0.998289 0.62422 0.463147
83 1 0.22831 0.711913 0.507614
70 1 0.144975 0.961913 0.507614
69 1 0.374996 0.87422 0.463147
98 1 0.644975 0.961913 0.507614
111 1 0.72831 0.711913 0.507614
97 1 0.874996 0.87422 0.463147
