ITEM: TIMESTEP
146
ITEM: NUMBER OF ATOMS
112
ITEM: BOX BOUNDS pp pp pp
0.0000000000000000e+00 1.0160888410139860e+01
0.0000000000000000e+00 1.0995765577807459e+01
0.0000000000000000e+00 3.4125699996899996e+01
ITEM: ATOMS id type xs ys zs
3 1 0.147311 0.0603843 0.105312
15 1 0.47831 0.10351 0
16 1 0.232636 0.171172 0.0331475
17 1 0.478197 0.237417 0.0677249
18 1 0.225974 0.310384 0.105312
31 1 0.647311 0.0603843 0.105312
43 1 0.97831 0.10351 0
44 1 0.732636 0.171172 0.0331475
45 1 0.978197 0.237417 0.0677249
46 1 0.725974 0.310384 0.105312
1 1 0.394975 0.35351 0
2 1 0.140649 0.421172 0.0331475
4 1 0.395088 0.487417 0.0677249
59 1 0.147311 0.560384 0.105312
71 1 0.47831 0.60351 0
29 1 0.894975 0.35351 0
30 1 0.640649 0.421172 0.0331475
32 1 0.895088 0.487417 0.0677249
87 1 0.647311 0.560384 0.105312
99 1 0.97831 0.60351 0
57 1 0.394975 0.85351 0
58 1 0.140649 0.921172 0.0331475
60 1 0.395088 0.987417 0.0677249
72 1 0.232636 0.671172 0.0331475
73 1 0.478197 0.737417 0.0677249
74 1 0.225974 0.810384 0.105312
85 1 0.894975 0.85351 0
86 1 0.640649 0.921172 0.0331475
88 1 0.895088 0.987417 0.0677249
100 1 0.732636 0.671172 0.0331475
101 1 0.978197 0.737417 0.0677249
102 1 0.725974 0.810384 0.105312
5 1 0.396718 0.134179 0.141689
6 1 0.146437 0.206866 0.178464
7 1 0.396146 0.279723 0.212897
20 1 0.477139 0.0297229 0.212897
33 1 0.896718 0.134179 0.141689
34 1 0.646437 0.206866 0.178464
35 1 0.896146 0.279723 0.212897
48 1 0.977139 0.0297229 0.212897
19 1 0.476567 0.384179 0.141689
21 1 0.226848 0.456866 0.178464
61 1 0.396718 0.634179 0.141689
76 1 0.477139 0.529723 0.212897
47 1 0.976567 0.384179 0.141689
49 1 0.726848 0.456866 0.178464
89 1 0.896718 0.634179 0.141689
104 1 0.977139 0.529723 0.212897
62 1 0.146437 0.706866 0.178464
63 1 0.396146 0.779723 0.212897
75 1 0.476567 0.884179 0.141689
77 1 0.226848 0.956866 0.178464
90 1 0.646437 0.706866 0.178464
91 1 0.896146 0.779723 0.212897
103 1 0.976567 0.884179 0.141689
105 1 0.726848 0.956866 0.178464
67 1 0.146718 0.281246 0.330846
65 1 0.396437 0.208559 0.294072
64 1 0.146146 0.135702 0.259638
80 1 0.226567 0.0312462 0.330846
95 1 0.646718 0.281246 0.330846
93 1 0.896437 0.208559 0.294072
92 1 0.646146 0.135702 0.259638
108 1 0.726567 0.0312462 0.330846
22 1 0.227139 0.385702 0.259638
23 1 0.476848 0.458559 0.294072
24 1 0.226567 0.531246 0.330846
8 1 0.146146 0.635702 0.259638
50 1 0.727139 0.385702 0.259638
51 1 0.976848 0.458559 0.294072
52 1 0.726567 0.531246 0.330846
36 1 0.646146 0.635702 0.259638
9 1 0.396437 0.708559 0.294072
11 1 0.146718 0.781246 0.330846
78 1 0.227139 0.885702 0.259638
79 1 0.476848 0.958559 0.294072
37 1 0.896437 0.708559 0.294072
39 1 0.646718 0.781246 0.330846
106 1 0.727139 0.885702 0.259638
107 1 0.976848 0.958559 0.294072
84 1 0.482636 0.244252 0.439388
82 1 0.228197 0.178007 0.404811
81 1 0.475974 0.10504 0.367223
112 1 0.982636 0.244252 0.439388
110 1 0.728197 0.178007 0.404811
109 1 0.975974 0.10504 0.367223
10 1 0.397311 0.35504 0.367223
12 1 0.145088 0.428007 0.404811
13 1 0.390649 0.494252 0.439388
25 1 0.475974 0.60504 0.367223
38 1 0.897311 0.35504 0.367223
40 1 0.645088 0.428007 0.404811
41 1 0.890649 0.494252 0.439388
53 1 0.975974 0.60504 0.367223
26 1 0.228197 0.678007 0.404811
28 1 0.482636 0.744252 0.439388
66 1 0.397311 0.85504 0.367223
68 1 0.145088 0.928007 0.404811
69 1 0.390649 0.994252 0.439388
54 1 0.728197 0.678007 0.404811
56 1 0.982636 0.744252 0.439388
94 1 0.897311 0.85504 0.367223
96 1 0.645088 0.928007 0.404811
97 1 0.890649 0.994252 0.439388
27 1 0.22831 0.311913 0.472535
70 1 0.144975 0.0619133 0.472535
55 1 0.72831 0.311913 0.472535
98 1 0.644975 0.0619133 0.472535
14 1 0.144975 0.561913 0.472535
42 1 0.644975 0.561913 0.472535
83 1 0.22831 0.811913 0.472535
111 1 0.72831 0.811913 0.472535
