ITEM: TIMESTEP
283
ITEM: NUMBER OF ATOMS
112
ITEM: BOX BOUNDS pp pp pp
0.0000000000000000e+00 1.2328198381184540e+01
0.0000000000000000e+00 1.3409956460377600e+01
0.0000000000000000e+00 3.7693498223115995e+01
ITEM: ATOMS id type xs ys zs
16 1 0.24829 0.191205 0.0497363
15 1 0.47831 0.10351 0
17 1 0.489104 0.239694 0.0783213
43 1 0.97831 0.10351 0
44 1 0.74829 0.191205 0.0497363
45 1 0.989104 0.239694 0.0783213
2 1 0.124995 0.441205 0.0497363
1 1 0.394975 0.35351 0
4 1 0.384181 0.489694 0.0783213
30 1 0.624995 0.441205 0.0497363
71 1 0.47831 0.60351 0
29 1 0.894975 0.35351 0
32 1 0.884181 0.489694 0.0783213
99 1 0.97831 0.60351 0
58 1 0.124995 0.941205 0.0497363
72 1 0.24829 0.691205 0.0497363
57 1 0.394975 0.85351 0
60 1 0.384181 0.989694 0.0783213
73 1 0.489104 0.739694 0.0783213
86 1 0.624995 0.941205 0.0497363
85 1 0.894975 0.85351 0
88 1 0.884181 0.989694 0.0783213
100 1 0.74829 0.691205 0.0497363
101 1 0.989104 0.739694 0.0783213
3 1 0.146288 0.0717794 0.121983
6 1 0.140061 0.212428 0.196208
18 1 0.226997 0.321779 0.121983
5 1 0.393869 0.139076 0.154862
31 1 0.646288 0.0717794 0.121983
34 1 0.640061 0.212428 0.196208
33 1 0.893869 0.139076 0.154862
46 1 0.726997 0.321779 0.121983
21 1 0.233224 0.462428 0.196208
59 1 0.146288 0.571779 0.121983
19 1 0.479416 0.389076 0.154862
61 1 0.393869 0.639076 0.154862
87 1 0.646288 0.571779 0.121983
47 1 0.979416 0.389076 0.154862
49 1 0.733224 0.462428 0.196208
89 1 0.893869 0.639076 0.154862
62 1 0.140061 0.712428 0.196208
74 1 0.226997 0.821779 0.121983
77 1 0.233224 0.962428 0.196208
75 1 0.479416 0.889076 0.154862
90 1 0.640061 0.712428 0.196208
102 1 0.726997 0.821779 0.121983
103 1 0.979416 0.889076 0.154862
105 1 0.733224 0.962428 0.196208
64 1 0.140791 0.319302 0.276061
78 1 0.232494 0.0693017 0.276061
7 1 0.390791 0.279457 0.231554
20 1 0.482494 0.0294574 0.231554
92 1 0.640791 0.319302 0.276061
79 1 0.483224 0.136332 0.311406
35 1 0.890791 0.279457 0.231554
48 1 0.982494 0.0294574 0.231554
107 1 0.983224 0.136332 0.311406
106 1 0.732494 0.0693017 0.276061
22 1 0.232494 0.569302 0.276061
65 1 0.390061 0.386332 0.311406
76 1 0.482494 0.529457 0.231554
23 1 0.483224 0.636332 0.311406
93 1 0.890061 0.386332 0.311406
104 1 0.982494 0.529457 0.231554
50 1 0.732494 0.569302 0.276061
51 1 0.983224 0.636332 0.311406
8 1 0.140791 0.819302 0.276061
36 1 0.640791 0.819302 0.276061
63 1 0.390791 0.779457 0.231554
9 1 0.390061 0.886332 0.311406
91 1 0.890791 0.779457 0.231554
37 1 0.890061 0.886332 0.311406
80 1 0.229417 0.209683 0.352753
68 1 0.134182 0.109063 0.429293
81 1 0.476998 0.276979 0.385631
96 1 0.634182 0.109063 0.429293
66 1 0.396287 0.0269793 0.385631
109 1 0.976998 0.276979 0.385631
108 1 0.729417 0.209683 0.352753
94 1 0.896287 0.0269793 0.385631
82 1 0.239103 0.359063 0.429293
67 1 0.143868 0.459683 0.352753
12 1 0.134182 0.609063 0.429293
95 1 0.643868 0.459683 0.352753
10 1 0.396287 0.526979 0.385631
40 1 0.634182 0.609063 0.429293
110 1 0.739103 0.359063 0.429293
38 1 0.896287 0.526979 0.385631
24 1 0.229417 0.709683 0.352753
26 1 0.239103 0.859063 0.429293
11 1 0.143868 0.959683 0.352753
25 1 0.476998 0.776979 0.385631
39 1 0.643868 0.959683 0.352753
52 1 0.729417 0.709683 0.352753
53 1 0.976998 0.776979 0.385631
54 1 0.739103 0.859063 0.429293
70 1 0.144975 0.245247 0.507614
98 1 0.644975 0.245247 0.507614
69 1 0.374996 0.157554 0.457878
97 1 0.874996 0.157554 0.457878
27 1 0.22831 0.495247 0.507614
84 1 0.498289 0.407554 0.457878
13 1 0.374996 0.657554 0.457878
112 1 0.998289 0.407554 0.457878
55 1 0.72831 0.495247 0.507614
41 1 0.874996 0.657554 0.457878
14 1 0.144975 0.745247 0.507614
83 1 0.22831 0.995247 0.507614
42 1 0.644975 0.745247 0.507614
28 1 0.498289 0.907554 0.457878
56 1 0.998289 0.907554 0.457878
111 1 0.72831 0.995247 0.507614
