ITEM: TIMESTEP
162
ITEM: NUMBER OF ATOMS
112
ITEM: BOX BOUNDS pp pp pp
0.0000000000000000e+00 1.0160888410139860e+01
0.0000000000000000e+00 1.0995765577807459e+01
0.0000000000000000e+00 3.4125699996899996e+01
ITEM: ATOMS id type xs ys zs
3 1 0.147311 0.0603843 0.104939
15 1 0.47831 0.10351 0
16 1 0.232636 0.171172 0.0328972
17 1 0.478197 0.237417 0.067677
18 1 0.225974 0.310384 0.104939
31 1 0.647311 0.0603843 0.104939
43 1 0.97831 0.10351 0
44 1 0.732636 0.171172 0.0328972
45 1 0.978197 0.237417 0.067677
46 1 0.725974 0.310384 0.104939
1 1 0.394975 0.35351 0
2 1 0.140649 0.421172 0.0328972
4 1 0.395088 0.487417 0.067677
59 1 0.147311 0.560384 0.104939
71 1 0.47831 0.60351 0
29 1 0.894975 0.35351 0
30 1 0.640649 0.421172 0.0328972
32 1 0.895088 0.487417 0.067677
87 1 0.647311 0.560384 0.104939
99 1 0.97831 0.60351 0
57 1 0.394975 0.85351 0
58 1 0.140649 0.921172 0.0328972
60 1 0.395088 0.987417 0.067677
72 1 0.232636 0.671172 0.0328972
73 1 0.478197 0.737417 0.067677
74 1 0.225974 0.810384 0.104939
85 1 0.894975 0.85351 0
86 1 0.640649 0.921172 0.0328972
88 1 0.895088 0.987417 0.067677
100 1 0.732636 0.671172 0.0328972
101 1 0.978197 0.737417 0.067677
102 1 0.725974 0.810384 0.104939
5 1 0.396718 0.134179 0.141615
6 1 0.146437 0.206866 0.17752
7 1 0.396146 0.279723 0.213749
20 1 0.477139 0.0297229 0.213749
33 1 0.896718 0.134179 0.141615
34 1 0.646437 0.206866 0.17752
35 1 0.896146 0.279723 0.213749
48 1 0.977139 0.0297229 0.213749
19 1 0.476567 0.384179 0.141615
21 1 0.226848 0.456866 0.17752
61 1 0.396718 0.634179 0.141615
76 1 0.477139 0.529723 0.213749
47 1 0.976567 0.384179 0.141615
49 1 0.726848 0.456866 0.17752
89 1 0.896718 0.634179 0.141615
104 1 0.977139 0.529723 0.213749
62 1 0.146437 0.706866 0.17752
63 1 0.396146 0.779723 0.213749
75 1 0.476567 0.884179 0.141615
77 1 0.226848 0.956866 0.17752
90 1 0.646437 0.706866 0.17752
91 1 0.896146 0.779723 0.213749
103 1 0.976567 0.884179 0.141615
105 1 0.726848 0.956866 0.17752
67 1 0.146718 0.31458 0.33092
65 1 0.396437 0.241892 0.295015
64 1 0.146146 0.169036 0.258786
80 1 0.226567 0.0645796 0.33092
95 1 0.646718 0.31458 0.33092
93 1 0.896437 0.241892 0.295015
92 1 0.646146 0.169036 0.258786
108 1 0.726567 0.0645796 0.33092
22 1 0.227139 0.419036 0.258786
23 1 0.476848 0.491892 0.295015
24 1 0.226567 0.56458 0.33092
50 1 0.727139 0.419036 0.258786
51 1 0.976848 0.491892 0.295015
52 1 0.726567 0.56458 0.33092
8 1 0.146146 0.669036 0.258786
9 1 0.396437 0.741892 0.295015
11 1 0.146718 0.81458 0.33092
78 1 0.227139 0.919036 0.258786
79 1 0.476848 0.991892 0.295015
36 1 0.646146 0.669036 0.258786
37 1 0.896437 0.741892 0.295015
39 1 0.646718 0.81458 0.33092
106 1 0.727139 0.919036 0.258786
107 1 0.976848 0.991892 0.295015
84 1 0.482636 0.277585 0.439638
82 1 0.228197 0.211341 0.404858
81 1 0.475974 0.138374 0.367597
69 1 0.390649 0.0275851 0.439638
112 1 0.982636 0.277585 0.439638
110 1 0.728197 0.211341 0.404858
109 1 0.975974 0.138374 0.367597
97 1 0.890649 0.0275851 0.439638
10 1 0.397311 0.388374 0.367597
12 1 0.145088 0.46134 0.404858
13 1 0.390649 0.527585 0.439638
25 1 0.475974 0.638374 0.367597
38 1 0.897311 0.388374 0.367597
40 1 0.645088 0.46134 0.404858
41 1 0.890649 0.527585 0.439638
53 1 0.975974 0.638374 0.367597
26 1 0.228197 0.711341 0.404858
28 1 0.482636 0.777585 0.439638
66 1 0.397311 0.888374 0.367597
68 1 0.145088 0.96134 0.404858
54 1 0.728197 0.711341 0.404858
56 1 0.982636 0.777585 0.439638
94 1 0.897311 0.888374 0.367597
96 1 0.645088 0.96134 0.404858
70 1 0.144975 0.0952467 0.472535
98 1 0.644975 0.0952467 0.472535
27 1 0.22831 0.345247 0.472535
14 1 0.144975 0.595247 0.472535
55 1 0.72831 0.345247 0.472535
42 1 0.644975 0.595247 0.472535
83 1 0.22831 0.845247 0.472535
111 1 0.72831 0.845247 0.472535
