ITEM: TIMESTEP
168
ITEM: NUMBER OF ATOMS
112
ITEM: BOX BOUNDS pp pp pp
0.0000000000000000e+00 1.0160888410139860e+01
0.0000000000000000e+00 1.0995765577807459e+01
0.0000000000000000e+00 3.4125699996899996e+01
ITEM: ATOMS id type xs ys zs
3 1 0.147311 0.0603843 0.104701
15 1 0.47831 0.10351 0
16 1 0.232636 0.171172 0.0327489
17 1 0.478197 0.237417 0.0676286
18 1 0.225974 0.310384 0.104701
31 1 0.647311 0.0603843 0.104701
43 1 0.97831 0.10351 0
44 1 0.732636 0.171172 0.0327489
45 1 0.978197 0.237417 0.0676286
46 1 0.725974 0.310384 0.104701
1 1 0.394975 0.35351 0
2 1 0.140649 0.421172 0.0327489
4 1 0.395088 0.487417 0.0676286
59 1 0.147311 0.560384 0.104701
71 1 0.47831 0.60351 0
29 1 0.894975 0.35351 0
30 1 0.640649 0.421172 0.0327489
32 1 0.895088 0.487417 0.0676286
87 1 0.647311 0.560384 0.104701
99 1 0.97831 0.60351 0
57 1 0.394975 0.85351 0
58 1 0.140649 0.921172 0.0327489
60 1 0.395088 0.987417 0.0676286
72 1 0.232636 0.671172 0.0327489
73 1 0.478197 0.737417 0.0676286
74 1 0.225974 0.810384 0.104701
85 1 0.894975 0.85351 0
86 1 0.640649 0.921172 0.0327489
88 1 0.895088 0.987417 0.0676286
100 1 0.732636 0.671172 0.0327489
101 1 0.978197 0.737417 0.0676286
102 1 0.725974 0.810384 0.104701
5 1 0.396718 0.134179 0.141543
6 1 0.146437 0.206866 0.177057
7 1 0.396146 0.279723 0.213987
20 1 0.477139 0.0297229 0.213987
33 1 0.896718 0.134179 0.141543
34 1 0.646437 0.206866 0.177057
35 1 0.896146 0.279723 0.213987
48 1 0.977139 0.0297229 0.213987
19 1 0.476567 0.384179 0.141543
21 1 0.226848 0.456866 0.177057
61 1 0.396718 0.634179 0.141543
76 1 0.477139 0.529723 0.213987
47 1 0.976567 0.384179 0.141543
49 1 0.726848 0.456866 0.177057
89 1 0.896718 0.634179 0.141543
104 1 0.977139 0.529723 0.213987
62 1 0.146437 0.706866 0.177057
63 1 0.396146 0.779723 0.213987
75 1 0.476567 0.884179 0.141543
77 1 0.226848 0.956866 0.177057
90 1 0.646437 0.706866 0.177057
91 1 0.896146 0.779723 0.213987
103 1 0.976567 0.884179 0.141543
105 1 0.726848 0.956866 0.177057
67 1 0.146718 0.331246 0.330993
65 1 0.396437 0.258559 0.295478
64 1 0.146146 0.185702 0.258549
80 1 0.226567 0.0812462 0.330993
79 1 0.476848 0.00855907 0.295478
95 1 0.646718 0.331246 0.330993
93 1 0.896437 0.258559 0.295478
92 1 0.646146 0.185702 0.258549
108 1 0.726567 0.0812462 0.330993
107 1 0.976848 0.00855907 0.295478
22 1 0.227139 0.435702 0.258548
23 1 0.476848 0.508559 0.295478
24 1 0.226567 0.581246 0.330993
50 1 0.727139 0.435702 0.258548
51 1 0.976848 0.508559 0.295478
52 1 0.726567 0.581246 0.330993
8 1 0.146146 0.685702 0.258549
9 1 0.396437 0.758559 0.295478
11 1 0.146718 0.831246 0.330993
78 1 0.227139 0.935702 0.258548
36 1 0.646146 0.685702 0.258549
37 1 0.896437 0.758559 0.295478
39 1 0.646718 0.831246 0.330993
106 1 0.727139 0.935702 0.258548
84 1 0.482636 0.294252 0.439787
82 1 0.228197 0.228007 0.404907
81 1 0.475974 0.15504 0.367835
69 1 0.390649 0.0442517 0.439787
112 1 0.982636 0.294252 0.439787
110 1 0.728197 0.228007 0.404907
109 1 0.975974 0.15504 0.367835
97 1 0.890649 0.0442517 0.439787
10 1 0.397311 0.40504 0.367835
12 1 0.145088 0.478007 0.404907
13 1 0.390649 0.544252 0.439787
25 1 0.475974 0.65504 0.367835
38 1 0.897311 0.40504 0.367835
40 1 0.645088 0.478007 0.404907
41 1 0.890649 0.544252 0.439787
53 1 0.975974 0.65504 0.367835
26 1 0.228197 0.728007 0.404907
28 1 0.482636 0.794252 0.439787
66 1 0.397311 0.90504 0.367835
68 1 0.145088 0.978007 0.404907
54 1 0.728197 0.728007 0.404907
56 1 0.982636 0.794252 0.439787
94 1 0.897311 0.90504 0.367835
96 1 0.645088 0.978007 0.404907
70 1 0.144975 0.111913 0.472535
98 1 0.644975 0.111913 0.472535
27 1 0.22831 0.361913 0.472535
14 1 0.144975 0.611913 0.472535
55 1 0.72831 0.361913 0.472535
42 1 0.644975 0.611913 0.472535
83 1 0.22831 0.861913 0.472535
111 1 0.72831 0.861913 0.472535
