ITEM: TIMESTEP
222
ITEM: NUMBER OF ATOMS
112
ITEM: BOX BOUNDS pp pp pp
0.0000000000000000e+00 1.2328198381184540e+01
0.0000000000000000e+00 1.3409956460377600e+01
0.0000000000000000e+00 3.7693498223115995e+01
ITEM: ATOMS id type xs ys zs
16 1 0.24829 0.191205 0.0474363
15 1 0.47831 0.10351 0
17 1 0.489104 0.239694 0.0767361
43 1 0.97831 0.10351 0
44 1 0.74829 0.191205 0.0474363
45 1 0.989104 0.239694 0.0767361
2 1 0.124995 0.441205 0.0474363
1 1 0.394975 0.35351 0
4 1 0.384181 0.489694 0.0767361
30 1 0.624995 0.441205 0.0474363
71 1 0.47831 0.60351 0
29 1 0.894975 0.35351 0
32 1 0.884181 0.489694 0.0767361
99 1 0.97831 0.60351 0
58 1 0.124995 0.941205 0.0474363
72 1 0.24829 0.691205 0.0474363
57 1 0.394975 0.85351 0
60 1 0.384181 0.989694 0.0767361
73 1 0.489104 0.739694 0.0767361
86 1 0.624995 0.941205 0.0474363
85 1 0.894975 0.85351 0
88 1 0.884181 0.989694 0.0767361
100 1 0.74829 0.691205 0.0474363
101 1 0.989104 0.739694 0.0767361
3 1 0.146288 0.0717794 0.119047
6 1 0.140061 0.212428 0.191742
18 1 0.226997 0.321779 0.119047
5 1 0.393869 0.139076 0.151981
31 1 0.646288 0.0717794 0.119047
34 1 0.640061 0.212428 0.191742
33 1 0.893869 0.139076 0.151981
46 1 0.726997 0.321779 0.119047
21 1 0.233224 0.462428 0.191742
59 1 0.146288 0.571779 0.119047
19 1 0.479416 0.389076 0.151981
61 1 0.393869 0.639076 0.151981
87 1 0.646288 0.571779 0.119047
47 1 0.979416 0.389076 0.151981
49 1 0.733224 0.462428 0.191742
89 1 0.893869 0.639076 0.151981
62 1 0.140061 0.712428 0.191742
74 1 0.226997 0.821779 0.119047
77 1 0.233224 0.962428 0.191742
75 1 0.479416 0.889076 0.151981
90 1 0.640061 0.712428 0.191742
102 1 0.726997 0.821779 0.119047
103 1 0.979416 0.889076 0.151981
105 1 0.733224 0.962428 0.191742
64 1 0.140791 0.202635 0.280468
7 1 0.390791 0.279457 0.227147
20 1 0.482494 0.0294574 0.227147
65 1 0.390061 0.269665 0.315873
92 1 0.640791 0.202635 0.280468
79 1 0.483224 0.0196649 0.315873
35 1 0.890791 0.279457 0.227147
48 1 0.982494 0.0294574 0.227147
93 1 0.890061 0.269665 0.315873
107 1 0.983224 0.0196649 0.315873
22 1 0.232494 0.452635 0.280468
76 1 0.482494 0.529457 0.227147
23 1 0.483224 0.519665 0.315873
104 1 0.982494 0.529457 0.227147
50 1 0.732494 0.452635 0.280468
51 1 0.983224 0.519665 0.315873
8 1 0.140791 0.702635 0.280468
78 1 0.232494 0.952635 0.280468
36 1 0.640791 0.702635 0.280468
63 1 0.390791 0.779457 0.227147
9 1 0.390061 0.769665 0.315873
91 1 0.890791 0.779457 0.227147
37 1 0.890061 0.769665 0.315873
106 1 0.732494 0.952635 0.280468
82 1 0.239103 0.242396 0.430878
80 1 0.229417 0.093016 0.355633
81 1 0.476998 0.160313 0.388567
110 1 0.739103 0.242396 0.430878
109 1 0.976998 0.160313 0.388567
108 1 0.729417 0.093016 0.355633
67 1 0.143868 0.343016 0.355633
12 1 0.134182 0.492396 0.430878
24 1 0.229417 0.593016 0.355633
95 1 0.643868 0.343016 0.355633
10 1 0.396287 0.410313 0.388567
40 1 0.634182 0.492396 0.430878
25 1 0.476998 0.660313 0.388567
38 1 0.896287 0.410313 0.388567
52 1 0.729417 0.593016 0.355633
53 1 0.976998 0.660313 0.388567
26 1 0.239103 0.742396 0.430878
11 1 0.143868 0.843016 0.355633
68 1 0.134182 0.992396 0.430878
39 1 0.643868 0.843016 0.355633
66 1 0.396287 0.910313 0.388567
96 1 0.634182 0.992396 0.430878
54 1 0.739103 0.742396 0.430878
94 1 0.896287 0.910313 0.388567
70 1 0.144975 0.12858 0.507614
84 1 0.498289 0.290887 0.460178
98 1 0.644975 0.12858 0.507614
69 1 0.374996 0.0408869 0.460178
112 1 0.998289 0.290887 0.460178
97 1 0.874996 0.0408869 0.460178
27 1 0.22831 0.37858 0.507614
14 1 0.144975 0.62858 0.507614
13 1 0.374996 0.540887 0.460178
42 1 0.644975 0.62858 0.507614
55 1 0.72831 0.37858 0.507614
41 1 0.874996 0.540887 0.460178
83 1 0.22831 0.87858 0.507614
28 1 0.498289 0.790887 0.460178
56 1 0.998289 0.790887 0.460178
111 1 0.72831 0.87858 0.507614
