ITEM: TIMESTEP
110
ITEM: NUMBER OF ATOMS
112
ITEM: BOX BOUNDS pp pp pp
0.0000000000000000e+00 1.0160888410139860e+01
0.0000000000000000e+00 1.0995765577807459e+01
0.0000000000000000e+00 3.4125699996899996e+01
ITEM: ATOMS id type xs ys zs
3 1 0.147311 0.0603843 0.105894
15 1 0.47831 0.10351 0
16 1 0.232636 0.171172 0.0334452
17 1 0.478197 0.237417 0.0676807
18 1 0.225974 0.310384 0.105894
31 1 0.647311 0.0603843 0.105894
43 1 0.97831 0.10351 0
44 1 0.732636 0.171172 0.0334452
45 1 0.978197 0.237417 0.0676807
46 1 0.725974 0.310384 0.105894
1 1 0.394975 0.35351 0
2 1 0.140649 0.421172 0.0334452
4 1 0.395088 0.487417 0.0676807
59 1 0.147311 0.560384 0.105894
71 1 0.47831 0.60351 0
29 1 0.894975 0.35351 0
30 1 0.640649 0.421172 0.0334452
32 1 0.895088 0.487417 0.0676807
87 1 0.647311 0.560384 0.105894
99 1 0.97831 0.60351 0
57 1 0.394975 0.85351 0
58 1 0.140649 0.921172 0.0334452
60 1 0.395088 0.987417 0.0676807
72 1 0.232636 0.671172 0.0334452
73 1 0.478197 0.737417 0.0676807
74 1 0.225974 0.810384 0.105894
85 1 0.894975 0.85351 0
86 1 0.640649 0.921172 0.0334452
88 1 0.895088 0.987417 0.0676807
100 1 0.732636 0.671172 0.0334452
101 1 0.978197 0.737417 0.0676807
102 1 0.725974 0.810384 0.105894
5 1 0.396718 0.134179 0.141385
6 1 0.146437 0.206866 0.179254
7 1 0.396146 0.279723 0.211428
20 1 0.477139 0.0297229 0.211428
33 1 0.896718 0.134179 0.141385
34 1 0.646437 0.206866 0.179254
35 1 0.896146 0.279723 0.211428
48 1 0.977139 0.0297229 0.211428
19 1 0.476567 0.384179 0.141385
21 1 0.226848 0.456866 0.179254
61 1 0.396718 0.634179 0.141385
76 1 0.477139 0.529723 0.211428
47 1 0.976567 0.384179 0.141385
49 1 0.726848 0.456866 0.179254
89 1 0.896718 0.634179 0.141385
104 1 0.977139 0.529723 0.211428
62 1 0.146437 0.706866 0.179254
63 1 0.396146 0.779723 0.211428
75 1 0.476567 0.884179 0.141385
77 1 0.226848 0.956866 0.179254
90 1 0.646437 0.706866 0.179254
91 1 0.896146 0.779723 0.211428
103 1 0.976567 0.884179 0.141385
105 1 0.726848 0.956866 0.179254
22 1 0.227139 0.302369 0.261107
67 1 0.146718 0.197913 0.33115
65 1 0.396437 0.125226 0.293281
64 1 0.146146 0.0523689 0.261107
50 1 0.727139 0.302369 0.261107
95 1 0.646718 0.197913 0.33115
93 1 0.896437 0.125226 0.293281
92 1 0.646146 0.0523689 0.261107
23 1 0.476848 0.375226 0.293281
24 1 0.226567 0.447913 0.33115
8 1 0.146146 0.552369 0.261107
9 1 0.396437 0.625226 0.293281
51 1 0.976848 0.375226 0.293281
52 1 0.726567 0.447913 0.33115
36 1 0.646146 0.552369 0.261107
37 1 0.896437 0.625226 0.293281
11 1 0.146718 0.697913 0.33115
78 1 0.227139 0.802369 0.261107
79 1 0.476848 0.875226 0.293281
80 1 0.226567 0.947913 0.33115
39 1 0.646718 0.697913 0.33115
106 1 0.727139 0.802369 0.261107
107 1 0.976848 0.875226 0.293281
108 1 0.726567 0.947913 0.33115
10 1 0.397311 0.271707 0.366641
84 1 0.482636 0.160918 0.43909
82 1 0.228197 0.0946742 0.404855
81 1 0.475974 0.0217071 0.366641
38 1 0.897311 0.271707 0.366641
112 1 0.982636 0.160918 0.43909
110 1 0.728197 0.0946742 0.404855
109 1 0.975974 0.0217071 0.366641
12 1 0.145088 0.344673 0.404855
13 1 0.390649 0.410918 0.43909
25 1 0.475974 0.521707 0.366641
26 1 0.228197 0.594674 0.404855
28 1 0.482636 0.660918 0.43909
40 1 0.645088 0.344673 0.404855
41 1 0.890649 0.410918 0.43909
53 1 0.975974 0.521707 0.366641
54 1 0.728197 0.594674 0.404855
56 1 0.982636 0.660918 0.43909
66 1 0.397311 0.771707 0.366641
68 1 0.145088 0.844673 0.404855
69 1 0.390649 0.910918 0.43909
94 1 0.897311 0.771707 0.366641
96 1 0.645088 0.844673 0.404855
97 1 0.890649 0.910918 0.43909
27 1 0.22831 0.22858 0.472535
55 1 0.72831 0.22858 0.472535
14 1 0.144975 0.47858 0.472535
42 1 0.644975 0.47858 0.472535
83 1 0.22831 0.72858 0.472535
70 1 0.144975 0.97858 0.472535
111 1 0.72831 0.72858 0.472535
98 1 0.644975 0.97858 0.472535
