ITEM: TIMESTEP
39
ITEM: NUMBER OF ATOMS
112
ITEM: BOX BOUNDS pp pp pp
0.0000000000000000e+00 1.2328198381184540e+01
0.0000000000000000e+00 1.3409956460377600e+01
0.0000000000000000e+00 3.7693498223115995e+01
ITEM: ATOMS id type xs ys zs
16 1 0.24829 0.191205 0.0502554
15 1 0.47831 0.10351 0
17 1 0.489104 0.239694 0.078605
43 1 0.97831 0.10351 0
44 1 0.74829 0.191205 0.0502554
45 1 0.989104 0.239694 0.078605
2 1 0.124995 0.441205 0.0502554
1 1 0.394975 0.35351 0
4 1 0.384181 0.489694 0.078605
30 1 0.624995 0.441205 0.0502554
71 1 0.47831 0.60351 0
29 1 0.894975 0.35351 0
32 1 0.884181 0.489694 0.078605
99 1 0.97831 0.60351 0
58 1 0.124995 0.941205 0.0502554
72 1 0.24829 0.691205 0.0502554
57 1 0.394975 0.85351 0
60 1 0.384181 0.989694 0.078605
73 1 0.489104 0.739694 0.078605
86 1 0.624995 0.941205 0.0502554
85 1 0.894975 0.85351 0
88 1 0.884181 0.989694 0.078605
100 1 0.74829 0.691205 0.0502554
101 1 0.989104 0.739694 0.078605
3 1 0.146288 0.0717794 0.122686
6 1 0.140061 0.212428 0.197249
18 1 0.226997 0.321779 0.122686
5 1 0.393869 0.139076 0.15535
31 1 0.646288 0.0717794 0.122686
34 1 0.640061 0.212428 0.197249
33 1 0.893869 0.139076 0.15535
46 1 0.726997 0.321779 0.122686
21 1 0.233224 0.462428 0.197249
59 1 0.146288 0.571779 0.122686
19 1 0.479416 0.389076 0.15535
61 1 0.393869 0.639076 0.15535
87 1 0.646288 0.571779 0.122686
47 1 0.979416 0.389076 0.15535
49 1 0.733224 0.462428 0.197249
89 1 0.893869 0.639076 0.15535
62 1 0.140061 0.712428 0.197249
74 1 0.226997 0.821779 0.122686
77 1 0.233224 0.962428 0.197249
75 1 0.479416 0.889076 0.15535
90 1 0.640061 0.712428 0.197249
102 1 0.726997 0.821779 0.122686
103 1 0.979416 0.889076 0.15535
105 1 0.733224 0.962428 0.197249
22 1 0.232494 0.135968 0.276743
7 1 0.390791 0.279457 0.230872
20 1 0.482494 0.0294574 0.230872
23 1 0.483224 0.202998 0.310365
35 1 0.890791 0.279457 0.230872
48 1 0.982494 0.0294574 0.230872
50 1 0.732494 0.135968 0.276743
51 1 0.983224 0.202998 0.310365
8 1 0.140791 0.385968 0.276743
78 1 0.232494 0.635968 0.276743
9 1 0.390061 0.452998 0.310365
36 1 0.640791 0.385968 0.276743
76 1 0.482494 0.529457 0.230872
37 1 0.890061 0.452998 0.310365
104 1 0.982494 0.529457 0.230872
106 1 0.732494 0.635968 0.276743
64 1 0.140791 0.885968 0.276743
63 1 0.390791 0.779457 0.230872
65 1 0.390061 0.952998 0.310365
79 1 0.483224 0.702998 0.310365
92 1 0.640791 0.885968 0.276743
91 1 0.890791 0.779457 0.230872
93 1 0.890061 0.952998 0.310365
107 1 0.983224 0.702998 0.310365
12 1 0.134182 0.17573 0.429009
24 1 0.229417 0.276349 0.352264
67 1 0.143868 0.0263494 0.352264
10 1 0.396287 0.093646 0.384929
40 1 0.634182 0.17573 0.429009
95 1 0.643868 0.0263494 0.352264
38 1 0.896287 0.093646 0.384929
52 1 0.729417 0.276349 0.352264
11 1 0.143868 0.526349 0.352264
26 1 0.239103 0.42573 0.429009
25 1 0.476998 0.343646 0.384929
39 1 0.643868 0.526349 0.352264
66 1 0.396287 0.593646 0.384929
53 1 0.976998 0.343646 0.384929
54 1 0.739103 0.42573 0.429009
94 1 0.896287 0.593646 0.384929
68 1 0.134182 0.67573 0.429009
80 1 0.229417 0.776349 0.352264
82 1 0.239103 0.92573 0.429009
96 1 0.634182 0.67573 0.429009
81 1 0.476998 0.843646 0.384929
108 1 0.729417 0.776349 0.352264
109 1 0.976998 0.843646 0.384929
110 1 0.739103 0.92573 0.429009
14 1 0.144975 0.311913 0.507614
27 1 0.22831 0.0619133 0.507614
13 1 0.374996 0.22422 0.457359
42 1 0.644975 0.311913 0.507614
41 1 0.874996 0.22422 0.457359
55 1 0.72831 0.0619133 0.507614
83 1 0.22831 0.561913 0.507614
28 1 0.498289 0.47422 0.457359
56 1 0.998289 0.47422 0.457359
111 1 0.72831 0.561913 0.507614
70 1 0.144975 0.811913 0.507614
69 1 0.374996 0.72422 0.457359
84 1 0.498289 0.97422 0.457359
98 1 0.644975 0.811913 0.507614
97 1 0.874996 0.72422 0.457359
112 1 0.998289 0.97422 0.457359
