ITEM: TIMESTEP
143
ITEM: NUMBER OF ATOMS
112
ITEM: BOX BOUNDS pp pp pp
0.0000000000000000e+00 1.2328198381184540e+01
0.0000000000000000e+00 1.3409956460377600e+01
0.0000000000000000e+00 3.7693498223115995e+01
ITEM: ATOMS id type xs ys zs
16 1 0.24829 0.191205 0.0449348
15 1 0.47831 0.10351 0
17 1 0.489104 0.239694 0.0745002
43 1 0.97831 0.10351 0
44 1 0.74829 0.191205 0.0449348
45 1 0.989104 0.239694 0.0745002
2 1 0.124995 0.441205 0.0449348
1 1 0.394975 0.35351 0
4 1 0.384181 0.489694 0.0745002
30 1 0.624995 0.441205 0.0449348
71 1 0.47831 0.60351 0
29 1 0.894975 0.35351 0
32 1 0.884181 0.489694 0.0745002
99 1 0.97831 0.60351 0
58 1 0.124995 0.941205 0.0449348
72 1 0.24829 0.691205 0.0449348
57 1 0.394975 0.85351 0
60 1 0.384181 0.989694 0.0745002
73 1 0.489104 0.739694 0.0745002
86 1 0.624995 0.941205 0.0449348
85 1 0.894975 0.85351 0
88 1 0.884181 0.989694 0.0745002
100 1 0.74829 0.691205 0.0449348
101 1 0.989104 0.739694 0.0745002
3 1 0.146288 0.0717794 0.115863
6 1 0.140061 0.212428 0.188256
18 1 0.226997 0.321779 0.115863
5 1 0.393869 0.139076 0.147854
31 1 0.646288 0.0717794 0.115863
34 1 0.640061 0.212428 0.188256
7 1 0.390791 0.279457 0.219298
20 1 0.482494 0.0294574 0.219298
33 1 0.893869 0.139076 0.147854
46 1 0.726997 0.321779 0.115863
35 1 0.890791 0.279457 0.219298
48 1 0.982494 0.0294574 0.219298
21 1 0.233224 0.462428 0.188256
59 1 0.146288 0.571779 0.115863
19 1 0.479416 0.389076 0.147854
61 1 0.393869 0.639076 0.147854
87 1 0.646288 0.571779 0.115863
76 1 0.482494 0.529457 0.219298
47 1 0.979416 0.389076 0.147854
49 1 0.733224 0.462428 0.188256
89 1 0.893869 0.639076 0.147854
104 1 0.982494 0.529457 0.219298
62 1 0.140061 0.712428 0.188256
74 1 0.226997 0.821779 0.115863
77 1 0.233224 0.962428 0.188256
75 1 0.479416 0.889076 0.147854
90 1 0.640061 0.712428 0.188256
63 1 0.390791 0.779457 0.219298
102 1 0.726997 0.821779 0.115863
103 1 0.979416 0.889076 0.147854
105 1 0.733224 0.962428 0.188256
91 1 0.890791 0.779457 0.219298
22 1 0.232494 0.302635 0.288316
64 1 0.140791 0.052635 0.288316
65 1 0.390061 0.119665 0.319358
92 1 0.640791 0.052635 0.288316
50 1 0.732494 0.302635 0.288316
93 1 0.890061 0.119665 0.319358
8 1 0.140791 0.552635 0.288316
23 1 0.483224 0.369665 0.319358
9 1 0.390061 0.619665 0.319358
36 1 0.640791 0.552635 0.288316
51 1 0.983224 0.369665 0.319358
37 1 0.890061 0.619665 0.319358
78 1 0.232494 0.802635 0.288316
79 1 0.483224 0.869665 0.319358
106 1 0.732494 0.802635 0.288316
107 1 0.983224 0.869665 0.319358
67 1 0.143868 0.193016 0.35976
82 1 0.239103 0.0923962 0.433114
10 1 0.396287 0.260313 0.391752
95 1 0.643868 0.193016 0.35976
81 1 0.476998 0.0103126 0.391752
38 1 0.896287 0.260313 0.391752
110 1 0.739103 0.0923962 0.433114
109 1 0.976998 0.0103126 0.391752
12 1 0.134182 0.342396 0.433114
24 1 0.229417 0.443016 0.35976
26 1 0.239103 0.592396 0.433114
40 1 0.634182 0.342396 0.433114
25 1 0.476998 0.510313 0.391752
52 1 0.729417 0.443016 0.35976
53 1 0.976998 0.510313 0.391752
54 1 0.739103 0.592396 0.433114
11 1 0.143868 0.693016 0.35976
68 1 0.134182 0.842396 0.433114
80 1 0.229417 0.943016 0.35976
39 1 0.643868 0.693016 0.35976
66 1 0.396287 0.760313 0.391752
96 1 0.634182 0.842396 0.433114
94 1 0.896287 0.760313 0.391752
108 1 0.729417 0.943016 0.35976
27 1 0.22831 0.22858 0.507614
84 1 0.498289 0.140887 0.46268
55 1 0.72831 0.22858 0.507614
112 1 0.998289 0.140887 0.46268
14 1 0.144975 0.47858 0.507614
13 1 0.374996 0.390887 0.46268
42 1 0.644975 0.47858 0.507614
28 1 0.498289 0.640887 0.46268
41 1 0.874996 0.390887 0.46268
56 1 0.998289 0.640887 0.46268
83 1 0.22831 0.72858 0.507614
70 1 0.144975 0.97858 0.507614
69 1 0.374996 0.890887 0.46268
98 1 0.644975 0.97858 0.507614
111 1 0.72831 0.72858 0.507614
97 1 0.874996 0.890887 0.46268
