ITEM: TIMESTEP
47
ITEM: NUMBER OF ATOMS
112
ITEM: BOX BOUNDS pp pp pp
0.0000000000000000e+00 1.0160888410139860e+01
0.0000000000000000e+00 1.0995765577807459e+01
0.0000000000000000e+00 3.4125699996899996e+01
ITEM: ATOMS id type xs ys zs
3 1 0.147311 0.0603843 0.106531
15 1 0.47831 0.10351 0
16 1 0.232636 0.171172 0.033878
17 1 0.478197 0.237417 0.068418
18 1 0.225974 0.310384 0.106531
31 1 0.647311 0.0603843 0.106531
43 1 0.97831 0.10351 0
44 1 0.732636 0.171172 0.033878
45 1 0.978197 0.237417 0.068418
46 1 0.725974 0.310384 0.106531
1 1 0.394975 0.35351 0
2 1 0.140649 0.421172 0.0338779
4 1 0.395088 0.487417 0.068418
59 1 0.147311 0.560384 0.106531
71 1 0.47831 0.60351 0
29 1 0.894975 0.35351 0
30 1 0.640649 0.421172 0.0338779
32 1 0.895088 0.487417 0.068418
87 1 0.647311 0.560384 0.106531
99 1 0.97831 0.60351 0
57 1 0.394975 0.85351 0
58 1 0.140649 0.921172 0.0338779
60 1 0.395088 0.987417 0.068418
72 1 0.232636 0.671172 0.033878
73 1 0.478197 0.737417 0.068418
74 1 0.225974 0.810384 0.106531
85 1 0.894975 0.85351 0
86 1 0.640649 0.921172 0.0338779
88 1 0.895088 0.987417 0.068418
100 1 0.732636 0.671172 0.033878
101 1 0.978197 0.737417 0.068418
102 1 0.725974 0.810384 0.106531
5 1 0.396718 0.134179 0.143168
6 1 0.146437 0.206866 0.179454
7 1 0.396146 0.279723 0.21407
20 1 0.477139 0.0297229 0.21407
33 1 0.896718 0.134179 0.143168
34 1 0.646437 0.206866 0.179454
35 1 0.896146 0.279723 0.21407
48 1 0.977139 0.0297229 0.21407
19 1 0.476567 0.384179 0.143168
21 1 0.226848 0.456866 0.179454
61 1 0.396718 0.634179 0.143168
76 1 0.477139 0.529723 0.21407
47 1 0.976567 0.384179 0.143168
49 1 0.726848 0.456866 0.179454
89 1 0.896718 0.634179 0.143168
104 1 0.977139 0.529723 0.21407
62 1 0.146437 0.706866 0.179454
63 1 0.396146 0.779723 0.21407
75 1 0.476567 0.884179 0.143168
77 1 0.226848 0.956866 0.179454
90 1 0.646437 0.706866 0.179454
91 1 0.896146 0.779723 0.21407
103 1 0.976567 0.884179 0.143168
105 1 0.726848 0.956866 0.179454
22 1 0.227139 0.169036 0.258465
23 1 0.476848 0.241892 0.293082
24 1 0.226567 0.31458 0.329367
67 1 0.146718 0.0645797 0.329367
50 1 0.727139 0.169036 0.258465
51 1 0.976848 0.241892 0.293082
52 1 0.726567 0.31458 0.329367
95 1 0.646718 0.0645797 0.329367
8 1 0.146146 0.419036 0.258465
9 1 0.396437 0.491892 0.293082
11 1 0.146718 0.56458 0.329367
36 1 0.646146 0.419036 0.258465
37 1 0.896437 0.491892 0.293082
39 1 0.646718 0.56458 0.329367
78 1 0.227139 0.669036 0.258465
64 1 0.146146 0.919036 0.258465
65 1 0.396437 0.991892 0.293082
79 1 0.476848 0.741892 0.293082
80 1 0.226567 0.81458 0.329367
106 1 0.727139 0.669036 0.258465
92 1 0.646146 0.919036 0.258465
93 1 0.896437 0.991892 0.293082
107 1 0.976848 0.741892 0.293082
108 1 0.726567 0.81458 0.329367
10 1 0.397311 0.138374 0.366005
12 1 0.145088 0.21134 0.404117
13 1 0.390649 0.277585 0.438657
84 1 0.482636 0.0275851 0.438658
38 1 0.897311 0.138374 0.366005
40 1 0.645088 0.21134 0.404117
41 1 0.890649 0.277585 0.438657
112 1 0.982636 0.0275851 0.438658
25 1 0.475974 0.388374 0.366005
26 1 0.228197 0.461341 0.404117
28 1 0.482636 0.527585 0.438658
66 1 0.397311 0.638374 0.366005
53 1 0.975974 0.388374 0.366005
54 1 0.728197 0.461341 0.404117
56 1 0.982636 0.527585 0.438658
94 1 0.897311 0.638374 0.366005
68 1 0.145088 0.71134 0.404117
69 1 0.390649 0.777585 0.438657
81 1 0.475974 0.888374 0.366005
82 1 0.228197 0.961341 0.404117
96 1 0.645088 0.71134 0.404117
97 1 0.890649 0.777585 0.438657
109 1 0.975974 0.888374 0.366005
110 1 0.728197 0.961341 0.404117
27 1 0.22831 0.0952467 0.472535
55 1 0.72831 0.0952467 0.472535
14 1 0.144975 0.345247 0.472535
83 1 0.22831 0.595247 0.472535
42 1 0.644975 0.345247 0.472535
111 1 0.72831 0.595247 0.472535
70 1 0.144975 0.845247 0.472535
98 1 0.644975 0.845247 0.472535
