ITEM: TIMESTEP
138
ITEM: NUMBER OF ATOMS
112
ITEM: BOX BOUNDS pp pp pp
0.0000000000000000e+00 1.0160888410139860e+01
0.0000000000000000e+00 1.0995765577807459e+01
0.0000000000000000e+00 3.4125699996899996e+01
ITEM: ATOMS id type xs ys zs
3 1 0.147311 0.0603843 0.105534
15 1 0.47831 0.10351 0
16 1 0.232636 0.171172 0.033286
17 1 0.478197 0.237417 0.0677651
18 1 0.225974 0.310384 0.105534
31 1 0.647311 0.0603843 0.105534
43 1 0.97831 0.10351 0
44 1 0.732636 0.171172 0.033286
45 1 0.978197 0.237417 0.0677651
46 1 0.725974 0.310384 0.105534
1 1 0.394975 0.35351 0
2 1 0.140649 0.421172 0.033286
4 1 0.395088 0.487417 0.0677651
59 1 0.147311 0.560384 0.105534
71 1 0.47831 0.60351 0
29 1 0.894975 0.35351 0
30 1 0.640649 0.421172 0.033286
32 1 0.895088 0.487417 0.0677651
87 1 0.647311 0.560384 0.105534
99 1 0.97831 0.60351 0
57 1 0.394975 0.85351 0
58 1 0.140649 0.921172 0.033286
60 1 0.395088 0.987417 0.0677651
72 1 0.232636 0.671172 0.033286
73 1 0.478197 0.737417 0.0677651
74 1 0.225974 0.810384 0.105534
85 1 0.894975 0.85351 0
86 1 0.640649 0.921172 0.033286
88 1 0.895088 0.987417 0.0677651
100 1 0.732636 0.671172 0.033286
101 1 0.978197 0.737417 0.0677651
102 1 0.725974 0.810384 0.105534
5 1 0.396718 0.134179 0.141721
6 1 0.146437 0.206866 0.178935
7 1 0.396146 0.279723 0.212581
20 1 0.477139 0.0297229 0.212581
33 1 0.896718 0.134179 0.141721
34 1 0.646437 0.206866 0.178935
35 1 0.896146 0.279723 0.212581
48 1 0.977139 0.0297229 0.212581
19 1 0.476567 0.384179 0.141721
21 1 0.226848 0.456866 0.178935
61 1 0.396718 0.634179 0.141721
76 1 0.477139 0.529723 0.212581
47 1 0.976567 0.384179 0.141721
49 1 0.726848 0.456866 0.178935
89 1 0.896718 0.634179 0.141721
104 1 0.977139 0.529723 0.212581
62 1 0.146437 0.706866 0.178935
63 1 0.396146 0.779723 0.212581
75 1 0.476567 0.884179 0.141721
77 1 0.226848 0.956866 0.178935
90 1 0.646437 0.706866 0.178935
91 1 0.896146 0.779723 0.212581
103 1 0.976567 0.884179 0.141721
105 1 0.726848 0.956866 0.178935
67 1 0.146718 0.26458 0.330814
65 1 0.396437 0.191892 0.2936
64 1 0.146146 0.119036 0.259955
80 1 0.226567 0.0145796 0.330814
95 1 0.646718 0.26458 0.330814
93 1 0.896437 0.191892 0.2936
92 1 0.646146 0.119036 0.259955
108 1 0.726567 0.0145796 0.330814
22 1 0.227139 0.369036 0.259955
23 1 0.476848 0.441892 0.2936
24 1 0.226567 0.51458 0.330814
8 1 0.146146 0.619036 0.259955
50 1 0.727139 0.369036 0.259955
51 1 0.976848 0.441892 0.2936
52 1 0.726567 0.51458 0.330814
36 1 0.646146 0.619036 0.259955
9 1 0.396437 0.691892 0.2936
11 1 0.146718 0.76458 0.330814
78 1 0.227139 0.869036 0.259955
79 1 0.476848 0.941892 0.2936
37 1 0.896437 0.691892 0.2936
39 1 0.646718 0.76458 0.330814
106 1 0.727139 0.869036 0.259955
107 1 0.976848 0.941892 0.2936
84 1 0.482636 0.227585 0.439249
82 1 0.228197 0.161341 0.40477
81 1 0.475974 0.0883737 0.367001
112 1 0.982636 0.227585 0.439249
110 1 0.728197 0.161341 0.40477
109 1 0.975974 0.0883737 0.367001
10 1 0.397311 0.338374 0.367001
12 1 0.145088 0.41134 0.40477
13 1 0.390649 0.477585 0.439249
25 1 0.475974 0.588374 0.367001
26 1 0.228197 0.661341 0.40477
38 1 0.897311 0.338374 0.367001
40 1 0.645088 0.41134 0.40477
41 1 0.890649 0.477585 0.439249
53 1 0.975974 0.588374 0.367001
54 1 0.728197 0.661341 0.40477
28 1 0.482636 0.727585 0.439249
66 1 0.397311 0.838374 0.367001
68 1 0.145088 0.91134 0.40477
69 1 0.390649 0.977585 0.439249
56 1 0.982636 0.727585 0.439249
94 1 0.897311 0.838374 0.367001
96 1 0.645088 0.91134 0.40477
97 1 0.890649 0.977585 0.439249
27 1 0.22831 0.295247 0.472535
70 1 0.144975 0.0452467 0.472535
55 1 0.72831 0.295247 0.472535
98 1 0.644975 0.0452467 0.472535
14 1 0.144975 0.545247 0.472535
42 1 0.644975 0.545247 0.472535
83 1 0.22831 0.795247 0.472535
111 1 0.72831 0.795247 0.472535
