ITEM: TIMESTEP
87
ITEM: NUMBER OF ATOMS
112
ITEM: BOX BOUNDS pp pp pp
0.0000000000000000e+00 1.0160888410139860e+01
0.0000000000000000e+00 1.0995765577807459e+01
0.0000000000000000e+00 3.4125699996899996e+01
ITEM: ATOMS id type xs ys zs
3 1 0.147311 0.0603843 0.105563
15 1 0.47831 0.10351 0
16 1 0.232636 0.171172 0.0331649
17 1 0.478197 0.237417 0.0675081
18 1 0.225974 0.310384 0.105563
31 1 0.647311 0.0603843 0.105563
43 1 0.97831 0.10351 0
44 1 0.732636 0.171172 0.0331649
45 1 0.978197 0.237417 0.0675081
46 1 0.725974 0.310384 0.105563
1 1 0.394975 0.35351 0
2 1 0.140649 0.421172 0.0331649
4 1 0.395088 0.487417 0.0675081
59 1 0.147311 0.560384 0.105563
71 1 0.47831 0.60351 0
29 1 0.894975 0.35351 0
30 1 0.640649 0.421172 0.0331649
32 1 0.895088 0.487417 0.0675081
87 1 0.647311 0.560384 0.105563
99 1 0.97831 0.60351 0
57 1 0.394975 0.85351 0
58 1 0.140649 0.921172 0.0331649
60 1 0.395088 0.987417 0.0675081
72 1 0.232636 0.671172 0.0331649
73 1 0.478197 0.737417 0.0675081
74 1 0.225974 0.810384 0.105563
85 1 0.894975 0.85351 0
86 1 0.640649 0.921172 0.0331649
88 1 0.895088 0.987417 0.0675081
100 1 0.732636 0.671172 0.0331649
101 1 0.978197 0.737417 0.0675081
102 1 0.725974 0.810384 0.105563
5 1 0.396718 0.134179 0.141024
6 1 0.146437 0.206866 0.178359
7 1 0.396146 0.279723 0.210942
20 1 0.477139 0.0297229 0.210942
33 1 0.896718 0.134179 0.141024
34 1 0.646437 0.206866 0.178359
35 1 0.896146 0.279723 0.210942
48 1 0.977139 0.0297229 0.210942
19 1 0.476567 0.384179 0.141024
21 1 0.226848 0.456866 0.178359
61 1 0.396718 0.634179 0.141024
76 1 0.477139 0.529723 0.210942
47 1 0.976567 0.384179 0.141024
49 1 0.726848 0.456866 0.178359
89 1 0.896718 0.634179 0.141024
104 1 0.977139 0.529723 0.210942
62 1 0.146437 0.706866 0.178359
63 1 0.396146 0.779723 0.210942
75 1 0.476567 0.884179 0.141024
77 1 0.226848 0.956866 0.178359
90 1 0.646437 0.706866 0.178359
91 1 0.896146 0.779723 0.210942
103 1 0.976567 0.884179 0.141024
105 1 0.726848 0.956866 0.178359
22 1 0.227139 0.252369 0.261593
23 1 0.476848 0.325226 0.294176
67 1 0.146718 0.147913 0.331511
65 1 0.396437 0.0752258 0.294176
64 1 0.146146 0.00236892 0.261593
50 1 0.727139 0.252369 0.261593
51 1 0.976848 0.325226 0.294176
95 1 0.646718 0.147913 0.331511
93 1 0.896437 0.0752258 0.294176
92 1 0.646146 0.00236892 0.261593
24 1 0.226567 0.397913 0.331511
8 1 0.146146 0.502369 0.261593
9 1 0.396437 0.575226 0.294176
11 1 0.146718 0.647913 0.331511
52 1 0.726567 0.397913 0.331511
36 1 0.646146 0.502369 0.261593
37 1 0.896437 0.575226 0.294176
39 1 0.646718 0.647913 0.331511
78 1 0.227139 0.752369 0.261593
79 1 0.476848 0.825226 0.294176
80 1 0.226567 0.897913 0.331511
106 1 0.727139 0.752369 0.261593
107 1 0.976848 0.825226 0.294176
108 1 0.726567 0.897913 0.331511
10 1 0.397311 0.221707 0.366972
12 1 0.145088 0.294673 0.405027
84 1 0.482636 0.110918 0.439371
82 1 0.228197 0.0446742 0.405027
38 1 0.897311 0.221707 0.366972
40 1 0.645088 0.294673 0.405027
112 1 0.982636 0.110918 0.439371
110 1 0.728197 0.0446742 0.405027
13 1 0.390649 0.360918 0.439371
25 1 0.475974 0.471707 0.366972
26 1 0.228197 0.544674 0.405027
28 1 0.482636 0.610918 0.439371
41 1 0.890649 0.360918 0.439371
53 1 0.975974 0.471707 0.366972
54 1 0.728197 0.544674 0.405027
56 1 0.982636 0.610918 0.439371
66 1 0.397311 0.721707 0.366972
68 1 0.145088 0.794673 0.405027
69 1 0.390649 0.860918 0.439371
81 1 0.475974 0.971707 0.366972
94 1 0.897311 0.721707 0.366972
96 1 0.645088 0.794673 0.405027
97 1 0.890649 0.860918 0.439371
109 1 0.975974 0.971707 0.366972
27 1 0.22831 0.17858 0.472535
55 1 0.72831 0.17858 0.472535
14 1 0.144975 0.42858 0.472535
42 1 0.644975 0.42858 0.472535
83 1 0.22831 0.67858 0.472535
70 1 0.144975 0.92858 0.472535
111 1 0.72831 0.67858 0.472535
98 1 0.644975 0.92858 0.472535
