ITEM: TIMESTEP
94
ITEM: NUMBER OF ATOMS
112
ITEM: BOX BOUNDS pp pp pp
0.0000000000000000e+00 1.0160888410139860e+01
0.0000000000000000e+00 1.0995765577807459e+01
0.0000000000000000e+00 3.4125699996899996e+01
ITEM: ATOMS id type xs ys zs
3 1 0.147311 0.0603843 0.105557
15 1 0.47831 0.10351 0
16 1 0.232636 0.171172 0.0331764
17 1 0.478197 0.237417 0.0674815
18 1 0.225974 0.310384 0.105557
31 1 0.647311 0.0603843 0.105557
43 1 0.97831 0.10351 0
44 1 0.732636 0.171172 0.0331764
45 1 0.978197 0.237417 0.0674815
46 1 0.725974 0.310384 0.105557
1 1 0.394975 0.35351 0
2 1 0.140649 0.421172 0.0331763
4 1 0.395088 0.487417 0.0674815
59 1 0.147311 0.560384 0.105557
71 1 0.47831 0.60351 0
29 1 0.894975 0.35351 0
30 1 0.640649 0.421172 0.0331763
32 1 0.895088 0.487417 0.0674815
87 1 0.647311 0.560384 0.105557
99 1 0.97831 0.60351 0
57 1 0.394975 0.85351 0
58 1 0.140649 0.921172 0.0331763
60 1 0.395088 0.987417 0.0674815
72 1 0.232636 0.671172 0.0331764
73 1 0.478197 0.737417 0.0674815
74 1 0.225974 0.810384 0.105557
85 1 0.894975 0.85351 0
86 1 0.640649 0.921172 0.0331763
88 1 0.895088 0.987417 0.0674815
100 1 0.732636 0.671172 0.0331764
101 1 0.978197 0.737417 0.0674815
102 1 0.725974 0.810384 0.105557
5 1 0.396718 0.134179 0.140947
6 1 0.146437 0.206866 0.178487
7 1 0.396146 0.279723 0.210843
20 1 0.477139 0.0297229 0.210843
33 1 0.896718 0.134179 0.140947
34 1 0.646437 0.206866 0.178487
35 1 0.896146 0.279723 0.210843
48 1 0.977139 0.0297229 0.210843
19 1 0.476567 0.384179 0.140947
21 1 0.226848 0.456866 0.178487
61 1 0.396718 0.634179 0.140947
76 1 0.477139 0.529723 0.210843
47 1 0.976567 0.384179 0.140947
49 1 0.726848 0.456866 0.178487
89 1 0.896718 0.634179 0.140947
104 1 0.977139 0.529723 0.210843
62 1 0.146437 0.706866 0.178487
63 1 0.396146 0.779723 0.210843
75 1 0.476567 0.884179 0.140947
77 1 0.226848 0.956866 0.178487
90 1 0.646437 0.706866 0.178487
91 1 0.896146 0.779723 0.210843
103 1 0.976567 0.884179 0.140947
105 1 0.726848 0.956866 0.178487
22 1 0.227139 0.269036 0.261692
67 1 0.146718 0.16458 0.331588
65 1 0.396437 0.0918924 0.294049
64 1 0.146146 0.0190356 0.261692
50 1 0.727139 0.269036 0.261692
95 1 0.646718 0.16458 0.331588
93 1 0.896437 0.0918924 0.294049
92 1 0.646146 0.0190356 0.261692
23 1 0.476848 0.341892 0.294049
24 1 0.226567 0.41458 0.331588
8 1 0.146146 0.519036 0.261692
9 1 0.396437 0.591892 0.294049
11 1 0.146718 0.66458 0.331588
51 1 0.976848 0.341892 0.294049
52 1 0.726567 0.41458 0.331588
36 1 0.646146 0.519036 0.261692
37 1 0.896437 0.591892 0.294049
39 1 0.646718 0.66458 0.331588
78 1 0.227139 0.769036 0.261692
79 1 0.476848 0.841892 0.294049
80 1 0.226567 0.91458 0.331588
106 1 0.727139 0.769036 0.261692
107 1 0.976848 0.841892 0.294049
108 1 0.726567 0.91458 0.331588
10 1 0.397311 0.238374 0.366978
12 1 0.145088 0.31134 0.405054
84 1 0.482636 0.127585 0.439359
82 1 0.228197 0.0613408 0.405054
38 1 0.897311 0.238374 0.366978
40 1 0.645088 0.31134 0.405054
112 1 0.982636 0.127585 0.439359
110 1 0.728197 0.0613408 0.405054
13 1 0.390649 0.377585 0.439359
25 1 0.475974 0.488374 0.366978
26 1 0.228197 0.561341 0.405054
28 1 0.482636 0.627585 0.439359
41 1 0.890649 0.377585 0.439359
53 1 0.975974 0.488374 0.366978
54 1 0.728197 0.561341 0.405054
56 1 0.982636 0.627585 0.439359
66 1 0.397311 0.738374 0.366978
68 1 0.145088 0.81134 0.405054
69 1 0.390649 0.877585 0.439359
81 1 0.475974 0.988374 0.366978
94 1 0.897311 0.738374 0.366978
96 1 0.645088 0.81134 0.405054
97 1 0.890649 0.877585 0.439359
109 1 0.975974 0.988374 0.366978
27 1 0.22831 0.195247 0.472535
55 1 0.72831 0.195247 0.472535
14 1 0.144975 0.445247 0.472535
42 1 0.644975 0.445247 0.472535
83 1 0.22831 0.695247 0.472535
70 1 0.144975 0.945247 0.472535
111 1 0.72831 0.695247 0.472535
98 1 0.644975 0.945247 0.472535
