ITEM: TIMESTEP
205
ITEM: NUMBER OF ATOMS
112
ITEM: BOX BOUNDS pp pp pp
0.0000000000000000e+00 1.0160888410139860e+01
0.0000000000000000e+00 1.0995765577807459e+01
0.0000000000000000e+00 3.4125699996899996e+01
ITEM: ATOMS id type xs ys zs
3 1 0.147311 0.0603843 0.105745
15 1 0.47831 0.10351 0
16 1 0.232636 0.171172 0.0335773
17 1 0.478197 0.237417 0.0682974
18 1 0.225974 0.310384 0.105745
31 1 0.647311 0.0603843 0.105745
43 1 0.97831 0.10351 0
44 1 0.732636 0.171172 0.0335773
45 1 0.978197 0.237417 0.0682974
46 1 0.725974 0.310384 0.105745
1 1 0.394975 0.35351 0
2 1 0.140649 0.421172 0.0335772
4 1 0.395088 0.487417 0.0682974
59 1 0.147311 0.560384 0.105745
71 1 0.47831 0.60351 0
29 1 0.894975 0.35351 0
30 1 0.640649 0.421172 0.0335772
32 1 0.895088 0.487417 0.0682974
87 1 0.647311 0.560384 0.105745
99 1 0.97831 0.60351 0
57 1 0.394975 0.85351 0
58 1 0.140649 0.921172 0.0335772
60 1 0.395088 0.987417 0.0682974
72 1 0.232636 0.671172 0.0335773
73 1 0.478197 0.737417 0.0682974
74 1 0.225974 0.810384 0.105745
85 1 0.894975 0.85351 0
86 1 0.640649 0.921172 0.0335772
88 1 0.895088 0.987417 0.0682974
100 1 0.732636 0.671172 0.0335773
101 1 0.978197 0.737417 0.0682974
102 1 0.725974 0.810384 0.105745
5 1 0.396718 0.134179 0.142926
6 1 0.146437 0.206866 0.178864
7 1 0.396146 0.279723 0.214952
20 1 0.477139 0.0297229 0.214952
33 1 0.896718 0.134179 0.142926
34 1 0.646437 0.206866 0.178864
35 1 0.896146 0.279723 0.214952
48 1 0.977139 0.0297229 0.214952
19 1 0.476567 0.384179 0.142926
21 1 0.226848 0.456866 0.178864
61 1 0.396718 0.634179 0.142926
76 1 0.477139 0.529723 0.214952
47 1 0.976567 0.384179 0.142926
49 1 0.726848 0.456866 0.178864
89 1 0.896718 0.634179 0.142926
104 1 0.977139 0.529723 0.214952
62 1 0.146437 0.706866 0.178864
63 1 0.396146 0.779723 0.214952
75 1 0.476567 0.884179 0.142926
77 1 0.226848 0.956866 0.178864
90 1 0.646437 0.706866 0.178864
91 1 0.896146 0.779723 0.214952
103 1 0.976567 0.884179 0.142926
105 1 0.726848 0.956866 0.178864
64 1 0.146146 0.285702 0.257583
80 1 0.226567 0.181246 0.329609
79 1 0.476848 0.108559 0.293671
78 1 0.227139 0.0357023 0.257583
92 1 0.646146 0.285702 0.257583
108 1 0.726567 0.181246 0.329609
107 1 0.976848 0.108559 0.293671
106 1 0.727139 0.0357023 0.257583
65 1 0.396437 0.358559 0.293671
67 1 0.146718 0.431246 0.329609
22 1 0.227139 0.535702 0.257583
23 1 0.476848 0.608559 0.293671
93 1 0.896437 0.358559 0.293671
95 1 0.646718 0.431246 0.329609
50 1 0.727139 0.535702 0.257583
51 1 0.976848 0.608559 0.293671
24 1 0.226567 0.681246 0.329609
8 1 0.146146 0.785702 0.257583
9 1 0.396437 0.858559 0.293671
11 1 0.146718 0.931246 0.329609
52 1 0.726567 0.681246 0.329609
36 1 0.646146 0.785702 0.257583
37 1 0.896437 0.858559 0.293671
39 1 0.646718 0.931246 0.329609
82 1 0.228197 0.328007 0.404238
81 1 0.475974 0.25504 0.366791
69 1 0.390649 0.144252 0.438958
68 1 0.145088 0.0780068 0.404238
66 1 0.397311 0.0050404 0.366791
110 1 0.728197 0.328007 0.404238
109 1 0.975974 0.25504 0.366791
97 1 0.890649 0.144252 0.438958
96 1 0.645088 0.0780068 0.404238
94 1 0.897311 0.0050404 0.366791
84 1 0.482636 0.394252 0.438958
10 1 0.397311 0.50504 0.366791
12 1 0.145088 0.578007 0.404238
13 1 0.390649 0.644252 0.438958
112 1 0.982636 0.394252 0.438958
38 1 0.897311 0.50504 0.366791
40 1 0.645088 0.578007 0.404238
41 1 0.890649 0.644252 0.438958
25 1 0.475974 0.75504 0.366791
26 1 0.228197 0.828007 0.404238
28 1 0.482636 0.894252 0.438958
53 1 0.975974 0.75504 0.366791
54 1 0.728197 0.828007 0.404238
56 1 0.982636 0.894252 0.438958
70 1 0.144975 0.211913 0.472535
98 1 0.644975 0.211913 0.472535
27 1 0.22831 0.461913 0.472535
55 1 0.72831 0.461913 0.472535
14 1 0.144975 0.711913 0.472535
83 1 0.22831 0.961913 0.472535
42 1 0.644975 0.711913 0.472535
111 1 0.72831 0.961913 0.472535
