ITEM: TIMESTEP
124
ITEM: NUMBER OF ATOMS
112
ITEM: BOX BOUNDS pp pp pp
0.0000000000000000e+00 1.0160888410139860e+01
0.0000000000000000e+00 1.0995765577807459e+01
0.0000000000000000e+00 3.4125699996899996e+01
ITEM: ATOMS id type xs ys zs
3 1 0.147311 0.0603843 0.105999
15 1 0.47831 0.10351 0
16 1 0.232636 0.171172 0.0335682
17 1 0.478197 0.237417 0.0678594
18 1 0.225974 0.310384 0.105999
31 1 0.647311 0.0603843 0.105999
43 1 0.97831 0.10351 0
44 1 0.732636 0.171172 0.0335682
45 1 0.978197 0.237417 0.0678594
46 1 0.725974 0.310384 0.105999
1 1 0.394975 0.35351 0
2 1 0.140649 0.421172 0.0335682
4 1 0.395088 0.487417 0.0678594
59 1 0.147311 0.560384 0.105999
71 1 0.47831 0.60351 0
29 1 0.894975 0.35351 0
30 1 0.640649 0.421172 0.0335682
32 1 0.895088 0.487417 0.0678594
87 1 0.647311 0.560384 0.105999
99 1 0.97831 0.60351 0
57 1 0.394975 0.85351 0
58 1 0.140649 0.921172 0.0335682
60 1 0.395088 0.987417 0.0678594
72 1 0.232636 0.671172 0.0335682
73 1 0.478197 0.737417 0.0678594
74 1 0.225974 0.810384 0.105999
85 1 0.894975 0.85351 0
86 1 0.640649 0.921172 0.0335682
88 1 0.895088 0.987417 0.0678594
100 1 0.732636 0.671172 0.0335682
101 1 0.978197 0.737417 0.0678594
102 1 0.725974 0.810384 0.105999
5 1 0.396718 0.134179 0.141784
6 1 0.146437 0.206866 0.179722
7 1 0.396146 0.279723 0.212167
20 1 0.477139 0.0297229 0.212167
33 1 0.896718 0.134179 0.141784
34 1 0.646437 0.206866 0.179722
35 1 0.896146 0.279723 0.212167
48 1 0.977139 0.0297229 0.212167
19 1 0.476567 0.384179 0.141784
21 1 0.226848 0.456866 0.179722
61 1 0.396718 0.634179 0.141784
76 1 0.477139 0.529723 0.212167
47 1 0.976567 0.384179 0.141784
49 1 0.726848 0.456866 0.179722
89 1 0.896718 0.634179 0.141784
104 1 0.977139 0.529723 0.212167
62 1 0.146437 0.706866 0.179722
63 1 0.396146 0.779723 0.212167
75 1 0.476567 0.884179 0.141784
77 1 0.226848 0.956866 0.179722
90 1 0.646437 0.706866 0.179722
91 1 0.896146 0.779723 0.212167
103 1 0.976567 0.884179 0.141784
105 1 0.726848 0.956866 0.179722
67 1 0.146718 0.231246 0.330751
65 1 0.396437 0.158559 0.292813
64 1 0.146146 0.0857023 0.260368
95 1 0.646718 0.231246 0.330751
93 1 0.896437 0.158559 0.292813
92 1 0.646146 0.0857023 0.260368
22 1 0.227139 0.335702 0.260368
23 1 0.476848 0.408559 0.292813
24 1 0.226567 0.481246 0.330751
8 1 0.146146 0.585702 0.260368
9 1 0.396437 0.658559 0.292813
50 1 0.727139 0.335702 0.260368
51 1 0.976848 0.408559 0.292813
52 1 0.726567 0.481246 0.330751
36 1 0.646146 0.585702 0.260368
37 1 0.896437 0.658559 0.292813
11 1 0.146718 0.731246 0.330751
78 1 0.227139 0.835702 0.260368
79 1 0.476848 0.908559 0.292813
80 1 0.226567 0.981246 0.330751
39 1 0.646718 0.731246 0.330751
106 1 0.727139 0.835702 0.260368
107 1 0.976848 0.908559 0.292813
108 1 0.726567 0.981246 0.330751
10 1 0.397311 0.30504 0.366536
84 1 0.482636 0.194252 0.438967
82 1 0.228197 0.128007 0.404676
81 1 0.475974 0.0550404 0.366536
38 1 0.897311 0.30504 0.366536
112 1 0.982636 0.194252 0.438967
110 1 0.728197 0.128007 0.404676
109 1 0.975974 0.0550404 0.366536
12 1 0.145088 0.378007 0.404676
13 1 0.390649 0.444252 0.438967
25 1 0.475974 0.55504 0.366536
26 1 0.228197 0.628007 0.404676
40 1 0.645088 0.378007 0.404676
41 1 0.890649 0.444252 0.438967
53 1 0.975974 0.55504 0.366536
54 1 0.728197 0.628007 0.404676
28 1 0.482636 0.694252 0.438967
66 1 0.397311 0.80504 0.366536
68 1 0.145088 0.878007 0.404676
69 1 0.390649 0.944252 0.438967
56 1 0.982636 0.694252 0.438967
94 1 0.897311 0.80504 0.366536
96 1 0.645088 0.878007 0.404676
97 1 0.890649 0.944252 0.438967
27 1 0.22831 0.261913 0.472535
70 1 0.144975 0.0119133 0.472535
55 1 0.72831 0.261913 0.472535
98 1 0.644975 0.0119133 0.472535
14 1 0.144975 0.511913 0.472535
42 1 0.644975 0.511913 0.472535
83 1 0.22831 0.761913 0.472535
111 1 0.72831 0.761913 0.472535
