ITEM: TIMESTEP
262
ITEM: NUMBER OF ATOMS
112
ITEM: BOX BOUNDS pp pp pp
0.0000000000000000e+00 1.2328198381184540e+01
0.0000000000000000e+00 1.3409956460377600e+01
0.0000000000000000e+00 3.7693498223115995e+01
ITEM: ATOMS id type xs ys zs
16 1 0.24829 0.191205 0.0480474
15 1 0.47831 0.10351 0
17 1 0.489104 0.239694 0.0771524
43 1 0.97831 0.10351 0
44 1 0.74829 0.191205 0.0480474
45 1 0.989104 0.239694 0.0771524
2 1 0.124995 0.441205 0.0480474
1 1 0.394975 0.35351 0
4 1 0.384181 0.489694 0.0771524
30 1 0.624995 0.441205 0.0480474
71 1 0.47831 0.60351 0
29 1 0.894975 0.35351 0
32 1 0.884181 0.489694 0.0771524
99 1 0.97831 0.60351 0
58 1 0.124995 0.941205 0.0480474
72 1 0.24829 0.691205 0.0480474
57 1 0.394975 0.85351 0
60 1 0.384181 0.989694 0.0771524
73 1 0.489104 0.739694 0.0771524
86 1 0.624995 0.941205 0.0480474
85 1 0.894975 0.85351 0
88 1 0.884181 0.989694 0.0771524
100 1 0.74829 0.691205 0.0480474
101 1 0.989104 0.739694 0.0771524
3 1 0.146288 0.0717794 0.119796
6 1 0.140061 0.212428 0.193168
18 1 0.226997 0.321779 0.119796
5 1 0.393869 0.139076 0.152731
31 1 0.646288 0.0717794 0.119796
34 1 0.640061 0.212428 0.193168
33 1 0.893869 0.139076 0.152731
46 1 0.726997 0.321779 0.119796
21 1 0.233224 0.462428 0.193168
59 1 0.146288 0.571779 0.119796
19 1 0.479416 0.389076 0.152731
61 1 0.393869 0.639076 0.152731
87 1 0.646288 0.571779 0.119796
47 1 0.979416 0.389076 0.152731
49 1 0.733224 0.462428 0.193168
89 1 0.893869 0.639076 0.152731
62 1 0.140061 0.712428 0.193168
74 1 0.226997 0.821779 0.119796
77 1 0.233224 0.962428 0.193168
75 1 0.479416 0.889076 0.152731
90 1 0.640061 0.712428 0.193168
102 1 0.726997 0.821779 0.119796
103 1 0.979416 0.889076 0.152731
105 1 0.733224 0.962428 0.193168
64 1 0.140791 0.285968 0.278836
78 1 0.232494 0.0359684 0.278836
7 1 0.390791 0.279457 0.228778
20 1 0.482494 0.0294574 0.228778
92 1 0.640791 0.285968 0.278836
79 1 0.483224 0.102998 0.314447
35 1 0.890791 0.279457 0.228778
48 1 0.982494 0.0294574 0.228778
107 1 0.983224 0.102998 0.314447
106 1 0.732494 0.0359684 0.278836
22 1 0.232494 0.535968 0.278836
65 1 0.390061 0.352998 0.314447
76 1 0.482494 0.529457 0.228778
23 1 0.483224 0.602998 0.314447
93 1 0.890061 0.352998 0.314447
104 1 0.982494 0.529457 0.228778
50 1 0.732494 0.535968 0.278836
51 1 0.983224 0.602998 0.314447
8 1 0.140791 0.785968 0.278836
36 1 0.640791 0.785968 0.278836
63 1 0.390791 0.779457 0.228778
9 1 0.390061 0.852998 0.314447
91 1 0.890791 0.779457 0.228778
37 1 0.890061 0.852998 0.314447
82 1 0.239103 0.32573 0.430462
80 1 0.229417 0.176349 0.354883
68 1 0.134182 0.0757296 0.430462
81 1 0.476998 0.243646 0.387818
96 1 0.634182 0.0757296 0.430462
110 1 0.739103 0.32573 0.430462
109 1 0.976998 0.243646 0.387818
108 1 0.729417 0.176349 0.354883
67 1 0.143868 0.426349 0.354883
12 1 0.134182 0.57573 0.430462
95 1 0.643868 0.426349 0.354883
10 1 0.396287 0.493646 0.387818
40 1 0.634182 0.57573 0.430462
38 1 0.896287 0.493646 0.387818
24 1 0.229417 0.676349 0.354883
26 1 0.239103 0.82573 0.430462
11 1 0.143868 0.926349 0.354883
25 1 0.476998 0.743646 0.387818
39 1 0.643868 0.926349 0.354883
66 1 0.396287 0.993646 0.387818
52 1 0.729417 0.676349 0.354883
53 1 0.976998 0.743646 0.387818
54 1 0.739103 0.82573 0.430462
94 1 0.896287 0.993646 0.387818
70 1 0.144975 0.211913 0.507614
98 1 0.644975 0.211913 0.507614
69 1 0.374996 0.12422 0.459567
97 1 0.874996 0.12422 0.459567
27 1 0.22831 0.461913 0.507614
84 1 0.498289 0.37422 0.459567
13 1 0.374996 0.62422 0.459567
112 1 0.998289 0.37422 0.459567
55 1 0.72831 0.461913 0.507614
41 1 0.874996 0.62422 0.459567
14 1 0.144975 0.711913 0.507614
83 1 0.22831 0.961913 0.507614
42 1 0.644975 0.711913 0.507614
28 1 0.498289 0.87422 0.459567
56 1 0.998289 0.87422 0.459567
111 1 0.72831 0.961913 0.507614
