ITEM: TIMESTEP
215
ITEM: NUMBER OF ATOMS
112
ITEM: BOX BOUNDS pp pp pp
0.0000000000000000e+00 1.2328198381184540e+01
0.0000000000000000e+00 1.3409956460377600e+01
0.0000000000000000e+00 3.7693498223115995e+01
ITEM: ATOMS id type xs ys zs
16 1 0.24829 0.191205 0.0474446
15 1 0.47831 0.10351 0
17 1 0.489104 0.239694 0.0767052
43 1 0.97831 0.10351 0
44 1 0.74829 0.191205 0.0474446
45 1 0.989104 0.239694 0.0767052
2 1 0.124995 0.441205 0.0474446
1 1 0.394975 0.35351 0
4 1 0.384181 0.489694 0.0767052
30 1 0.624995 0.441205 0.0474446
71 1 0.47831 0.60351 0
29 1 0.894975 0.35351 0
32 1 0.884181 0.489694 0.0767052
99 1 0.97831 0.60351 0
58 1 0.124995 0.941205 0.0474446
72 1 0.24829 0.691205 0.0474446
57 1 0.394975 0.85351 0
60 1 0.384181 0.989694 0.0767052
73 1 0.489104 0.739694 0.0767052
86 1 0.624995 0.941205 0.0474446
85 1 0.894975 0.85351 0
88 1 0.884181 0.989694 0.0767052
100 1 0.74829 0.691205 0.0474446
101 1 0.989104 0.739694 0.0767052
3 1 0.146288 0.0717794 0.119064
6 1 0.140061 0.212428 0.19184
18 1 0.226997 0.321779 0.119064
5 1 0.393869 0.139076 0.151904
31 1 0.646288 0.0717794 0.119064
34 1 0.640061 0.212428 0.19184
33 1 0.893869 0.139076 0.151904
46 1 0.726997 0.321779 0.119064
21 1 0.233224 0.462428 0.19184
59 1 0.146288 0.571779 0.119064
19 1 0.479416 0.389076 0.151904
61 1 0.393869 0.639076 0.151904
87 1 0.646288 0.571779 0.119064
47 1 0.979416 0.389076 0.151904
49 1 0.733224 0.462428 0.19184
89 1 0.893869 0.639076 0.151904
62 1 0.140061 0.712428 0.19184
74 1 0.226997 0.821779 0.119064
77 1 0.233224 0.962428 0.19184
75 1 0.479416 0.889076 0.151904
90 1 0.640061 0.712428 0.19184
102 1 0.726997 0.821779 0.119064
103 1 0.979416 0.889076 0.151904
105 1 0.733224 0.962428 0.19184
64 1 0.140791 0.185968 0.280643
7 1 0.390791 0.279457 0.226971
20 1 0.482494 0.0294574 0.226971
65 1 0.390061 0.252998 0.315775
92 1 0.640791 0.185968 0.280643
79 1 0.483224 0.00299822 0.315775
35 1 0.890791 0.279457 0.226971
48 1 0.982494 0.0294574 0.226971
93 1 0.890061 0.252998 0.315775
107 1 0.983224 0.00299822 0.315775
22 1 0.232494 0.435968 0.280643
76 1 0.482494 0.529457 0.226971
23 1 0.483224 0.502998 0.315775
104 1 0.982494 0.529457 0.226971
50 1 0.732494 0.435968 0.280643
51 1 0.983224 0.502998 0.315775
8 1 0.140791 0.685968 0.280643
78 1 0.232494 0.935968 0.280643
36 1 0.640791 0.685968 0.280643
63 1 0.390791 0.779457 0.226971
9 1 0.390061 0.752998 0.315775
91 1 0.890791 0.779457 0.226971
37 1 0.890061 0.752998 0.315775
106 1 0.732494 0.935968 0.280643
67 1 0.143868 0.326349 0.35571
82 1 0.239103 0.22573 0.430909
80 1 0.229417 0.0763494 0.35571
95 1 0.643868 0.326349 0.35571
81 1 0.476998 0.143646 0.388551
110 1 0.739103 0.22573 0.430909
109 1 0.976998 0.143646 0.388551
108 1 0.729417 0.0763494 0.35571
12 1 0.134182 0.47573 0.430909
24 1 0.229417 0.576349 0.35571
10 1 0.396287 0.393646 0.388551
40 1 0.634182 0.47573 0.430909
25 1 0.476998 0.643646 0.388551
38 1 0.896287 0.393646 0.388551
52 1 0.729417 0.576349 0.35571
53 1 0.976998 0.643646 0.388551
26 1 0.239103 0.72573 0.430909
11 1 0.143868 0.826349 0.35571
68 1 0.134182 0.97573 0.430909
39 1 0.643868 0.826349 0.35571
66 1 0.396287 0.893646 0.388551
96 1 0.634182 0.97573 0.430909
54 1 0.739103 0.72573 0.430909
94 1 0.896287 0.893646 0.388551
70 1 0.144975 0.111913 0.507614
84 1 0.498289 0.27422 0.46017
98 1 0.644975 0.111913 0.507614
69 1 0.374996 0.0242202 0.46017
112 1 0.998289 0.27422 0.46017
97 1 0.874996 0.0242202 0.46017
27 1 0.22831 0.361913 0.507614
14 1 0.144975 0.611913 0.507614
13 1 0.374996 0.52422 0.46017
42 1 0.644975 0.611913 0.507614
55 1 0.72831 0.361913 0.507614
41 1 0.874996 0.52422 0.46017
83 1 0.22831 0.861913 0.507614
28 1 0.498289 0.77422 0.46017
56 1 0.998289 0.77422 0.46017
111 1 0.72831 0.861913 0.507614
