ITEM: TIMESTEP
73
ITEM: NUMBER OF ATOMS
112
ITEM: BOX BOUNDS pp pp pp
0.0000000000000000e+00 1.2328198381184540e+01
0.0000000000000000e+00 1.3409956460377600e+01
0.0000000000000000e+00 3.7693498223115995e+01
ITEM: ATOMS id type xs ys zs
16 1 0.24829 0.191205 0.0487931
15 1 0.47831 0.10351 0
17 1 0.489104 0.239694 0.0769906
43 1 0.97831 0.10351 0
44 1 0.74829 0.191205 0.0487931
45 1 0.989104 0.239694 0.0769906
2 1 0.124995 0.441205 0.0487931
1 1 0.394975 0.35351 0
4 1 0.384181 0.489694 0.0769906
30 1 0.624995 0.441205 0.0487931
71 1 0.47831 0.60351 0
29 1 0.894975 0.35351 0
32 1 0.884181 0.489694 0.0769906
99 1 0.97831 0.60351 0
58 1 0.124995 0.941205 0.0487931
72 1 0.24829 0.691205 0.0487931
57 1 0.394975 0.85351 0
60 1 0.384181 0.989694 0.0769906
73 1 0.489104 0.739694 0.0769906
86 1 0.624995 0.941205 0.0487931
85 1 0.894975 0.85351 0
88 1 0.884181 0.989694 0.0769906
100 1 0.74829 0.691205 0.0487931
101 1 0.989104 0.739694 0.0769906
3 1 0.146288 0.0717794 0.120982
6 1 0.140061 0.212428 0.195187
18 1 0.226997 0.321779 0.120982
5 1 0.393869 0.139076 0.152142
31 1 0.646288 0.0717794 0.120982
34 1 0.640061 0.212428 0.195187
33 1 0.893869 0.139076 0.152142
46 1 0.726997 0.321779 0.120982
21 1 0.233224 0.462428 0.195187
59 1 0.146288 0.571779 0.120982
19 1 0.479416 0.389076 0.152142
61 1 0.393869 0.639076 0.152142
87 1 0.646288 0.571779 0.120982
47 1 0.979416 0.389076 0.152142
49 1 0.733224 0.462428 0.195187
89 1 0.893869 0.639076 0.152142
62 1 0.140061 0.712428 0.195187
74 1 0.226997 0.821779 0.120982
77 1 0.233224 0.962428 0.195187
75 1 0.479416 0.889076 0.152142
90 1 0.640061 0.712428 0.195187
102 1 0.726997 0.821779 0.120982
103 1 0.979416 0.889076 0.152142
105 1 0.733224 0.962428 0.195187
22 1 0.232494 0.202635 0.281744
7 1 0.390791 0.279457 0.22587
20 1 0.482494 0.0294574 0.22587
23 1 0.483224 0.269665 0.312427
65 1 0.390061 0.0196649 0.312427
35 1 0.890791 0.279457 0.22587
48 1 0.982494 0.0294574 0.22587
50 1 0.732494 0.202635 0.281744
51 1 0.983224 0.269665 0.312427
93 1 0.890061 0.0196649 0.312427
8 1 0.140791 0.452635 0.281744
9 1 0.390061 0.519665 0.312427
36 1 0.640791 0.452635 0.281744
76 1 0.482494 0.529457 0.22587
37 1 0.890061 0.519665 0.312427
104 1 0.982494 0.529457 0.22587
78 1 0.232494 0.702635 0.281744
64 1 0.140791 0.952635 0.281744
63 1 0.390791 0.779457 0.22587
79 1 0.483224 0.769665 0.312427
92 1 0.640791 0.952635 0.281744
106 1 0.732494 0.702635 0.281744
91 1 0.890791 0.779457 0.22587
107 1 0.983224 0.769665 0.312427
12 1 0.134182 0.242396 0.430624
67 1 0.143868 0.093016 0.355472
10 1 0.396287 0.160313 0.386633
40 1 0.634182 0.242396 0.430624
95 1 0.643868 0.093016 0.355472
38 1 0.896287 0.160313 0.386633
24 1 0.229417 0.343016 0.355472
11 1 0.143868 0.593016 0.355472
26 1 0.239103 0.492396 0.430624
25 1 0.476998 0.410313 0.386633
39 1 0.643868 0.593016 0.355472
66 1 0.396287 0.660313 0.386633
52 1 0.729417 0.343016 0.355472
53 1 0.976998 0.410313 0.386633
54 1 0.739103 0.492396 0.430624
94 1 0.896287 0.660313 0.386633
68 1 0.134182 0.742396 0.430624
80 1 0.229417 0.843016 0.355472
82 1 0.239103 0.992396 0.430624
96 1 0.634182 0.742396 0.430624
81 1 0.476998 0.910313 0.386633
108 1 0.729417 0.843016 0.355472
109 1 0.976998 0.910313 0.386633
110 1 0.739103 0.992396 0.430624
27 1 0.22831 0.12858 0.507614
13 1 0.374996 0.290887 0.458821
84 1 0.498289 0.0408869 0.458821
41 1 0.874996 0.290887 0.458821
55 1 0.72831 0.12858 0.507614
112 1 0.998289 0.0408869 0.458821
14 1 0.144975 0.37858 0.507614
83 1 0.22831 0.62858 0.507614
42 1 0.644975 0.37858 0.507614
28 1 0.498289 0.540887 0.458821
56 1 0.998289 0.540887 0.458821
111 1 0.72831 0.62858 0.507614
70 1 0.144975 0.87858 0.507614
69 1 0.374996 0.790887 0.458821
98 1 0.644975 0.87858 0.507614
97 1 0.874996 0.790887 0.458821
