ITEM: TIMESTEP
48
ITEM: NUMBER OF ATOMS
112
ITEM: BOX BOUNDS pp pp pp
0.0000000000000000e+00 1.2328198381184540e+01
0.0000000000000000e+00 1.3409956460377600e+01
0.0000000000000000e+00 3.7693498223115995e+01
ITEM: ATOMS id type xs ys zs
16 1 0.24829 0.191205 0.0495714
15 1 0.47831 0.10351 0
17 1 0.489104 0.239694 0.0778856
43 1 0.97831 0.10351 0
44 1 0.74829 0.191205 0.0495714
45 1 0.989104 0.239694 0.0778856
2 1 0.124995 0.441205 0.0495714
1 1 0.394975 0.35351 0
4 1 0.384181 0.489694 0.0778856
30 1 0.624995 0.441205 0.0495714
71 1 0.47831 0.60351 0
29 1 0.894975 0.35351 0
32 1 0.884181 0.489694 0.0778856
99 1 0.97831 0.60351 0
58 1 0.124995 0.941205 0.0495714
72 1 0.24829 0.691205 0.0495714
57 1 0.394975 0.85351 0
60 1 0.384181 0.989694 0.0778856
73 1 0.489104 0.739694 0.0778856
86 1 0.624995 0.941205 0.0495714
85 1 0.894975 0.85351 0
88 1 0.884181 0.989694 0.0778856
100 1 0.74829 0.691205 0.0495714
101 1 0.989104 0.739694 0.0778856
3 1 0.146288 0.0717794 0.121876
6 1 0.140061 0.212428 0.196224
18 1 0.226997 0.321779 0.121876
5 1 0.393869 0.139076 0.153947
31 1 0.646288 0.0717794 0.121876
34 1 0.640061 0.212428 0.196224
33 1 0.893869 0.139076 0.153947
46 1 0.726997 0.321779 0.121876
21 1 0.233224 0.462428 0.196224
59 1 0.146288 0.571779 0.121876
19 1 0.479416 0.389076 0.153947
61 1 0.393869 0.639076 0.153947
87 1 0.646288 0.571779 0.121876
47 1 0.979416 0.389076 0.153947
49 1 0.733224 0.462428 0.196224
89 1 0.893869 0.639076 0.153947
62 1 0.140061 0.712428 0.196224
74 1 0.226997 0.821779 0.121876
77 1 0.233224 0.962428 0.196224
75 1 0.479416 0.889076 0.153947
90 1 0.640061 0.712428 0.196224
102 1 0.726997 0.821779 0.121876
103 1 0.979416 0.889076 0.153947
105 1 0.733224 0.962428 0.196224
22 1 0.232494 0.152635 0.278929
7 1 0.390791 0.279457 0.228686
20 1 0.482494 0.0294574 0.228686
23 1 0.483224 0.219665 0.311391
35 1 0.890791 0.279457 0.228686
48 1 0.982494 0.0294574 0.228686
50 1 0.732494 0.152635 0.278929
51 1 0.983224 0.219665 0.311391
8 1 0.140791 0.402635 0.278929
78 1 0.232494 0.652635 0.278929
9 1 0.390061 0.469665 0.311391
36 1 0.640791 0.402635 0.278929
76 1 0.482494 0.529457 0.228686
37 1 0.890061 0.469665 0.311391
104 1 0.982494 0.529457 0.228686
106 1 0.732494 0.652635 0.278929
64 1 0.140791 0.902635 0.278929
63 1 0.390791 0.779457 0.228686
65 1 0.390061 0.969665 0.311391
79 1 0.483224 0.719665 0.311391
92 1 0.640791 0.902635 0.278929
91 1 0.890791 0.779457 0.228686
93 1 0.890061 0.969665 0.311391
107 1 0.983224 0.719665 0.311391
12 1 0.134182 0.192396 0.429729
24 1 0.229417 0.293016 0.353667
67 1 0.143868 0.043016 0.353667
10 1 0.396287 0.110313 0.385738
40 1 0.634182 0.192396 0.429729
95 1 0.643868 0.043016 0.353667
38 1 0.896287 0.110313 0.385738
52 1 0.729417 0.293016 0.353667
11 1 0.143868 0.543016 0.353667
26 1 0.239103 0.442396 0.429729
25 1 0.476998 0.360313 0.385738
39 1 0.643868 0.543016 0.353667
66 1 0.396287 0.610313 0.385738
53 1 0.976998 0.360313 0.385738
54 1 0.739103 0.442396 0.429729
94 1 0.896287 0.610313 0.385738
68 1 0.134182 0.692396 0.429729
80 1 0.229417 0.793016 0.353667
82 1 0.239103 0.942396 0.429729
96 1 0.634182 0.692396 0.429729
81 1 0.476998 0.860313 0.385738
108 1 0.729417 0.793016 0.353667
109 1 0.976998 0.860313 0.385738
110 1 0.739103 0.942396 0.429729
14 1 0.144975 0.32858 0.507614
27 1 0.22831 0.07858 0.507614
13 1 0.374996 0.240887 0.458043
42 1 0.644975 0.32858 0.507614
41 1 0.874996 0.240887 0.458043
55 1 0.72831 0.07858 0.507614
83 1 0.22831 0.57858 0.507614
28 1 0.498289 0.490887 0.458043
56 1 0.998289 0.490887 0.458043
111 1 0.72831 0.57858 0.507614
70 1 0.144975 0.82858 0.507614
69 1 0.374996 0.740887 0.458043
84 1 0.498289 0.990887 0.458043
98 1 0.644975 0.82858 0.507614
97 1 0.874996 0.740887 0.458043
112 1 0.998289 0.990887 0.458043
