ITEM: TIMESTEP
192
ITEM: NUMBER OF ATOMS
112
ITEM: BOX BOUNDS pp pp pp
0.0000000000000000e+00 1.2328198381184540e+01
0.0000000000000000e+00 1.3409956460377600e+01
0.0000000000000000e+00 3.7693498223115995e+01
ITEM: ATOMS id type xs ys zs
16 1 0.24829 0.191205 0.0477642
15 1 0.47831 0.10351 0
17 1 0.489104 0.239694 0.0766754
43 1 0.97831 0.10351 0
44 1 0.74829 0.191205 0.0477642
45 1 0.989104 0.239694 0.0766754
2 1 0.124995 0.441205 0.0477642
1 1 0.394975 0.35351 0
4 1 0.384181 0.489694 0.0766754
30 1 0.624995 0.441205 0.0477642
71 1 0.47831 0.60351 0
29 1 0.894975 0.35351 0
32 1 0.884181 0.489694 0.0766754
99 1 0.97831 0.60351 0
58 1 0.124995 0.941205 0.0477642
72 1 0.24829 0.691205 0.0477642
57 1 0.394975 0.85351 0
60 1 0.384181 0.989694 0.0766754
73 1 0.489104 0.739694 0.0766754
86 1 0.624995 0.941205 0.0477642
85 1 0.894975 0.85351 0
88 1 0.884181 0.989694 0.0766754
100 1 0.74829 0.691205 0.0477642
101 1 0.989104 0.739694 0.0766754
3 1 0.146288 0.0717794 0.119515
6 1 0.140061 0.212428 0.193009
18 1 0.226997 0.321779 0.119515
5 1 0.393869 0.139076 0.151724
31 1 0.646288 0.0717794 0.119515
34 1 0.640061 0.212428 0.193009
33 1 0.893869 0.139076 0.151724
46 1 0.726997 0.321779 0.119515
21 1 0.233224 0.462428 0.193009
59 1 0.146288 0.571779 0.119515
19 1 0.479416 0.389076 0.151724
61 1 0.393869 0.639076 0.151724
87 1 0.646288 0.571779 0.119515
47 1 0.979416 0.389076 0.151724
49 1 0.733224 0.462428 0.193009
89 1 0.893869 0.639076 0.151724
62 1 0.140061 0.712428 0.193009
74 1 0.226997 0.821779 0.119515
77 1 0.233224 0.962428 0.193009
75 1 0.479416 0.889076 0.151724
90 1 0.640061 0.712428 0.193009
102 1 0.726997 0.821779 0.119515
103 1 0.979416 0.889076 0.151724
105 1 0.733224 0.962428 0.193009
64 1 0.140791 0.135968 0.281325
7 1 0.390791 0.279457 0.226289
20 1 0.482494 0.0294574 0.226289
65 1 0.390061 0.202998 0.314606
92 1 0.640791 0.135968 0.281325
35 1 0.890791 0.279457 0.226289
48 1 0.982494 0.0294574 0.226289
93 1 0.890061 0.202998 0.314606
22 1 0.232494 0.385968 0.281325
8 1 0.140791 0.635968 0.281325
76 1 0.482494 0.529457 0.226289
23 1 0.483224 0.452998 0.314606
36 1 0.640791 0.635968 0.281325
104 1 0.982494 0.529457 0.226289
50 1 0.732494 0.385968 0.281325
51 1 0.983224 0.452998 0.314606
78 1 0.232494 0.885968 0.281325
63 1 0.390791 0.779457 0.226289
9 1 0.390061 0.702998 0.314606
79 1 0.483224 0.952998 0.314606
91 1 0.890791 0.779457 0.226289
37 1 0.890061 0.702998 0.314606
106 1 0.732494 0.885968 0.281325
107 1 0.983224 0.952998 0.314606
67 1 0.143868 0.276349 0.35589
82 1 0.239103 0.17573 0.430939
80 1 0.229417 0.0263494 0.35589
95 1 0.643868 0.276349 0.35589
81 1 0.476998 0.093646 0.3881
110 1 0.739103 0.17573 0.430939
109 1 0.976998 0.093646 0.3881
108 1 0.729417 0.0263494 0.35589
12 1 0.134182 0.42573 0.430939
24 1 0.229417 0.526349 0.35589
10 1 0.396287 0.343646 0.3881
40 1 0.634182 0.42573 0.430939
25 1 0.476998 0.593646 0.3881
38 1 0.896287 0.343646 0.3881
52 1 0.729417 0.526349 0.35589
53 1 0.976998 0.593646 0.3881
26 1 0.239103 0.67573 0.430939
11 1 0.143868 0.776349 0.35589
68 1 0.134182 0.92573 0.430939
39 1 0.643868 0.776349 0.35589
66 1 0.396287 0.843646 0.3881
96 1 0.634182 0.92573 0.430939
54 1 0.739103 0.67573 0.430939
94 1 0.896287 0.843646 0.3881
27 1 0.22831 0.311913 0.507614
70 1 0.144975 0.0619133 0.507614
84 1 0.498289 0.22422 0.45985
98 1 0.644975 0.0619133 0.507614
55 1 0.72831 0.311913 0.507614
112 1 0.998289 0.22422 0.45985
14 1 0.144975 0.561913 0.507614
13 1 0.374996 0.47422 0.45985
42 1 0.644975 0.561913 0.507614
41 1 0.874996 0.47422 0.45985
83 1 0.22831 0.811913 0.507614
28 1 0.498289 0.72422 0.45985
69 1 0.374996 0.97422 0.45985
56 1 0.998289 0.72422 0.45985
111 1 0.72831 0.811913 0.507614
97 1 0.874996 0.97422 0.45985
