ITEM: TIMESTEP
186
ITEM: NUMBER OF ATOMS
112
ITEM: BOX BOUNDS pp pp pp
0.0000000000000000e+00 1.0160888410139860e+01
0.0000000000000000e+00 1.0995765577807459e+01
0.0000000000000000e+00 3.4125699996899996e+01
ITEM: ATOMS id type xs ys zs
3 1 0.147311 0.0603843 0.104622
15 1 0.47831 0.10351 0
16 1 0.232636 0.171172 0.0327804
17 1 0.478197 0.237417 0.067698
18 1 0.225974 0.310384 0.104622
31 1 0.647311 0.0603843 0.104622
43 1 0.97831 0.10351 0
44 1 0.732636 0.171172 0.0327804
45 1 0.978197 0.237417 0.067698
46 1 0.725974 0.310384 0.104622
1 1 0.394975 0.35351 0
2 1 0.140649 0.421172 0.0327804
4 1 0.395088 0.487417 0.067698
59 1 0.147311 0.560384 0.104622
71 1 0.47831 0.60351 0
29 1 0.894975 0.35351 0
30 1 0.640649 0.421172 0.0327804
32 1 0.895088 0.487417 0.067698
87 1 0.647311 0.560384 0.104622
99 1 0.97831 0.60351 0
57 1 0.394975 0.85351 0
58 1 0.140649 0.921172 0.0327804
60 1 0.395088 0.987417 0.067698
72 1 0.232636 0.671172 0.0327804
73 1 0.478197 0.737417 0.067698
74 1 0.225974 0.810384 0.104622
85 1 0.894975 0.85351 0
86 1 0.640649 0.921172 0.0327804
88 1 0.895088 0.987417 0.067698
100 1 0.732636 0.671172 0.0327804
101 1 0.978197 0.737417 0.067698
102 1 0.725974 0.810384 0.104622
5 1 0.396718 0.134179 0.141774
6 1 0.146437 0.206866 0.177019
7 1 0.396146 0.279723 0.213976
20 1 0.477139 0.0297229 0.213976
33 1 0.896718 0.134179 0.141774
34 1 0.646437 0.206866 0.177019
35 1 0.896146 0.279723 0.213976
48 1 0.977139 0.0297229 0.213976
19 1 0.476567 0.384179 0.141774
21 1 0.226848 0.456866 0.177019
61 1 0.396718 0.634179 0.141774
76 1 0.477139 0.529723 0.213976
47 1 0.976567 0.384179 0.141774
49 1 0.726848 0.456866 0.177019
89 1 0.896718 0.634179 0.141774
104 1 0.977139 0.529723 0.213976
62 1 0.146437 0.706866 0.177019
63 1 0.396146 0.779723 0.213976
75 1 0.476567 0.884179 0.141774
77 1 0.226848 0.956866 0.177019
90 1 0.646437 0.706866 0.177019
91 1 0.896146 0.779723 0.213976
103 1 0.976567 0.884179 0.141774
105 1 0.726848 0.956866 0.177019
65 1 0.396437 0.308559 0.295516
64 1 0.146146 0.235702 0.258559
80 1 0.226567 0.131246 0.330761
79 1 0.476848 0.0585591 0.295516
93 1 0.896437 0.308559 0.295516
92 1 0.646146 0.235702 0.258559
108 1 0.726567 0.131246 0.330761
107 1 0.976848 0.0585591 0.295516
67 1 0.146718 0.381246 0.330761
22 1 0.227139 0.485702 0.258559
23 1 0.476848 0.558559 0.295516
24 1 0.226567 0.631246 0.330761
95 1 0.646718 0.381246 0.330761
50 1 0.727139 0.485702 0.258559
51 1 0.976848 0.558559 0.295516
52 1 0.726567 0.631246 0.330761
8 1 0.146146 0.735702 0.258559
9 1 0.396437 0.808559 0.295516
11 1 0.146718 0.881246 0.330761
78 1 0.227139 0.985702 0.258559
36 1 0.646146 0.735702 0.258559
37 1 0.896437 0.808559 0.295516
39 1 0.646718 0.881246 0.330761
106 1 0.727139 0.985702 0.258559
82 1 0.228197 0.278007 0.404837
81 1 0.475974 0.20504 0.367914
69 1 0.390649 0.0942517 0.439755
68 1 0.145088 0.0280068 0.404837
110 1 0.728197 0.278007 0.404837
109 1 0.975974 0.20504 0.367914
97 1 0.890649 0.0942517 0.439755
96 1 0.645088 0.0280068 0.404837
84 1 0.482636 0.344252 0.439755
10 1 0.397311 0.45504 0.367914
12 1 0.145088 0.528007 0.404837
13 1 0.390649 0.594252 0.439755
112 1 0.982636 0.344252 0.439755
38 1 0.897311 0.45504 0.367914
40 1 0.645088 0.528007 0.404837
41 1 0.890649 0.594252 0.439755
25 1 0.475974 0.70504 0.367914
26 1 0.228197 0.778007 0.404837
28 1 0.482636 0.844252 0.439755
66 1 0.397311 0.95504 0.367914
53 1 0.975974 0.70504 0.367914
54 1 0.728197 0.778007 0.404837
56 1 0.982636 0.844252 0.439755
94 1 0.897311 0.95504 0.367914
70 1 0.144975 0.161913 0.472535
98 1 0.644975 0.161913 0.472535
27 1 0.22831 0.411913 0.472535
14 1 0.144975 0.661913 0.472535
55 1 0.72831 0.411913 0.472535
42 1 0.644975 0.661913 0.472535
83 1 0.22831 0.911913 0.472535
111 1 0.72831 0.911913 0.472535
