ITEM: TIMESTEP
21
ITEM: NUMBER OF ATOMS
112
ITEM: BOX BOUNDS pp pp pp
0.0000000000000000e+00 1.0160888410139860e+01
0.0000000000000000e+00 1.0995765577807459e+01
0.0000000000000000e+00 3.4125699996899996e+01
ITEM: ATOMS id type xs ys zs
3 1 0.147311 0.0603843 0.1069
15 1 0.47831 0.10351 0
16 1 0.232636 0.171172 0.0343206
17 1 0.478197 0.237417 0.0690408
18 1 0.225974 0.310384 0.1069
31 1 0.647311 0.0603843 0.1069
43 1 0.97831 0.10351 0
44 1 0.732636 0.171172 0.0343206
45 1 0.978197 0.237417 0.0690408
46 1 0.725974 0.310384 0.1069
1 1 0.394975 0.35351 0
2 1 0.140649 0.421172 0.0343205
4 1 0.395088 0.487417 0.0690408
59 1 0.147311 0.560384 0.1069
71 1 0.47831 0.60351 0
29 1 0.894975 0.35351 0
30 1 0.640649 0.421172 0.0343205
32 1 0.895088 0.487417 0.0690408
87 1 0.647311 0.560384 0.1069
99 1 0.97831 0.60351 0
57 1 0.394975 0.85351 0
58 1 0.140649 0.921172 0.0343205
60 1 0.395088 0.987417 0.0690408
72 1 0.232636 0.671172 0.0343206
73 1 0.478197 0.737417 0.0690408
74 1 0.225974 0.810384 0.1069
85 1 0.894975 0.85351 0
86 1 0.640649 0.921172 0.0343205
88 1 0.895088 0.987417 0.0690408
100 1 0.732636 0.671172 0.0343206
101 1 0.978197 0.737417 0.0690408
102 1 0.725974 0.810384 0.1069
5 1 0.396718 0.134179 0.14448
6 1 0.146437 0.206866 0.180603
7 1 0.396146 0.279723 0.217408
20 1 0.477139 0.0297229 0.217408
33 1 0.896718 0.134179 0.14448
34 1 0.646437 0.206866 0.180603
35 1 0.896146 0.279723 0.217408
48 1 0.977139 0.0297229 0.217408
19 1 0.476567 0.384179 0.14448
21 1 0.226848 0.456866 0.180603
61 1 0.396718 0.634179 0.14448
76 1 0.477139 0.529723 0.217408
47 1 0.976567 0.384179 0.14448
49 1 0.726848 0.456866 0.180603
89 1 0.896718 0.634179 0.14448
104 1 0.977139 0.529723 0.217408
62 1 0.146437 0.706866 0.180603
63 1 0.396146 0.779723 0.217408
75 1 0.476567 0.884179 0.14448
77 1 0.226848 0.956866 0.180603
90 1 0.646437 0.706866 0.180603
91 1 0.896146 0.779723 0.217408
103 1 0.976567 0.884179 0.14448
105 1 0.726848 0.956866 0.180603
22 1 0.227139 0.119036 0.255127
23 1 0.476848 0.191892 0.291933
24 1 0.226567 0.26458 0.328056
67 1 0.146718 0.0145797 0.328056
50 1 0.727139 0.119036 0.255127
51 1 0.976848 0.191892 0.291933
52 1 0.726567 0.26458 0.328056
95 1 0.646718 0.0145797 0.328056
8 1 0.146146 0.369036 0.255127
9 1 0.396437 0.441892 0.291933
11 1 0.146718 0.51458 0.328056
78 1 0.227139 0.619036 0.255127
36 1 0.646146 0.369036 0.255127
37 1 0.896437 0.441892 0.291933
39 1 0.646718 0.51458 0.328056
106 1 0.727139 0.619036 0.255127
64 1 0.146146 0.869036 0.255127
65 1 0.396437 0.941892 0.291933
79 1 0.476848 0.691892 0.291933
80 1 0.226567 0.76458 0.328056
92 1 0.646146 0.869036 0.255127
93 1 0.896437 0.941892 0.291933
107 1 0.976848 0.691892 0.291933
108 1 0.726567 0.76458 0.328056
10 1 0.397311 0.0883737 0.365636
12 1 0.145088 0.16134 0.403495
13 1 0.390649 0.227585 0.438215
38 1 0.897311 0.0883737 0.365636
40 1 0.645088 0.16134 0.403495
41 1 0.890649 0.227585 0.438215
25 1 0.475974 0.338374 0.365636
26 1 0.228197 0.411341 0.403495
28 1 0.482636 0.477585 0.438215
66 1 0.397311 0.588374 0.365636
68 1 0.145088 0.66134 0.403495
53 1 0.975974 0.338374 0.365636
54 1 0.728197 0.411341 0.403495
56 1 0.982636 0.477585 0.438215
94 1 0.897311 0.588374 0.365636
96 1 0.645088 0.66134 0.403495
69 1 0.390649 0.727585 0.438215
81 1 0.475974 0.838374 0.365636
82 1 0.228197 0.911341 0.403495
84 1 0.482636 0.977585 0.438215
97 1 0.890649 0.727585 0.438215
109 1 0.975974 0.838374 0.365636
110 1 0.728197 0.911341 0.403495
112 1 0.982636 0.977585 0.438215
14 1 0.144975 0.295247 0.472535
27 1 0.22831 0.0452467 0.472535
42 1 0.644975 0.295247 0.472535
55 1 0.72831 0.0452467 0.472535
83 1 0.22831 0.545247 0.472535
111 1 0.72831 0.545247 0.472535
70 1 0.144975 0.795247 0.472535
98 1 0.644975 0.795247 0.472535
