ITEM: TIMESTEP
72
ITEM: NUMBER OF ATOMS
112
ITEM: BOX BOUNDS pp pp pp
0.0000000000000000e+00 1.0160888410139860e+01
0.0000000000000000e+00 1.0995765577807459e+01
0.0000000000000000e+00 3.4125699996899996e+01
ITEM: ATOMS id type xs ys zs
3 1 0.147311 0.0603843 0.105853
15 1 0.47831 0.10351 0
16 1 0.232636 0.171172 0.0333198
17 1 0.478197 0.237417 0.0677415
18 1 0.225974 0.310384 0.105853
31 1 0.647311 0.0603843 0.105853
43 1 0.97831 0.10351 0
44 1 0.732636 0.171172 0.0333198
45 1 0.978197 0.237417 0.0677415
46 1 0.725974 0.310384 0.105853
1 1 0.394975 0.35351 0
2 1 0.140649 0.421172 0.0333198
4 1 0.395088 0.487417 0.0677415
59 1 0.147311 0.560384 0.105853
71 1 0.47831 0.60351 0
29 1 0.894975 0.35351 0
30 1 0.640649 0.421172 0.0333198
32 1 0.895088 0.487417 0.0677415
87 1 0.647311 0.560384 0.105853
99 1 0.97831 0.60351 0
57 1 0.394975 0.85351 0
58 1 0.140649 0.921172 0.0333198
60 1 0.395088 0.987417 0.0677415
72 1 0.232636 0.671172 0.0333198
73 1 0.478197 0.737417 0.0677415
74 1 0.225974 0.810384 0.105853
85 1 0.894975 0.85351 0
86 1 0.640649 0.921172 0.0333198
88 1 0.895088 0.987417 0.0677415
100 1 0.732636 0.671172 0.0333198
101 1 0.978197 0.737417 0.0677415
102 1 0.725974 0.810384 0.105853
5 1 0.396718 0.134179 0.141573
6 1 0.146437 0.206866 0.178515
7 1 0.396146 0.279723 0.211699
20 1 0.477139 0.0297229 0.211699
33 1 0.896718 0.134179 0.141573
34 1 0.646437 0.206866 0.178515
35 1 0.896146 0.279723 0.211699
48 1 0.977139 0.0297229 0.211699
19 1 0.476567 0.384179 0.141573
21 1 0.226848 0.456866 0.178515
61 1 0.396718 0.634179 0.141573
76 1 0.477139 0.529723 0.211699
47 1 0.976567 0.384179 0.141573
49 1 0.726848 0.456866 0.178515
89 1 0.896718 0.634179 0.141573
104 1 0.977139 0.529723 0.211699
62 1 0.146437 0.706866 0.178515
63 1 0.396146 0.779723 0.211699
75 1 0.476567 0.884179 0.141573
77 1 0.226848 0.956866 0.178515
90 1 0.646437 0.706866 0.178515
91 1 0.896146 0.779723 0.211699
103 1 0.976567 0.884179 0.141573
105 1 0.726848 0.956866 0.178515
22 1 0.227139 0.219036 0.260836
23 1 0.476848 0.291892 0.294021
67 1 0.146718 0.11458 0.330963
65 1 0.396437 0.0418924 0.294021
50 1 0.727139 0.219036 0.260836
51 1 0.976848 0.291892 0.294021
95 1 0.646718 0.11458 0.330963
93 1 0.896437 0.0418924 0.294021
24 1 0.226567 0.36458 0.330963
8 1 0.146146 0.469036 0.260836
9 1 0.396437 0.541892 0.294021
11 1 0.146718 0.61458 0.330963
52 1 0.726567 0.36458 0.330963
36 1 0.646146 0.469036 0.260836
37 1 0.896437 0.541892 0.294021
39 1 0.646718 0.61458 0.330963
78 1 0.227139 0.719036 0.260836
64 1 0.146146 0.969036 0.260836
79 1 0.476848 0.791892 0.294021
80 1 0.226567 0.86458 0.330963
106 1 0.727139 0.719036 0.260836
92 1 0.646146 0.969036 0.260836
107 1 0.976848 0.791892 0.294021
108 1 0.726567 0.86458 0.330963
10 1 0.397311 0.188374 0.366682
12 1 0.145088 0.26134 0.404794
13 1 0.390649 0.327585 0.439216
84 1 0.482636 0.0775851 0.439216
82 1 0.228197 0.0113408 0.404794
38 1 0.897311 0.188374 0.366682
40 1 0.645088 0.26134 0.404794
41 1 0.890649 0.327585 0.439216
112 1 0.982636 0.0775851 0.439216
110 1 0.728197 0.0113408 0.404794
25 1 0.475974 0.438374 0.366682
26 1 0.228197 0.511341 0.404794
28 1 0.482636 0.577585 0.439216
53 1 0.975974 0.438374 0.366682
54 1 0.728197 0.511341 0.404794
56 1 0.982636 0.577585 0.439216
66 1 0.397311 0.688374 0.366682
68 1 0.145088 0.76134 0.404794
69 1 0.390649 0.827585 0.439216
81 1 0.475974 0.938374 0.366682
94 1 0.897311 0.688374 0.366682
96 1 0.645088 0.76134 0.404794
97 1 0.890649 0.827585 0.439216
109 1 0.975974 0.938374 0.366682
27 1 0.22831 0.145247 0.472535
55 1 0.72831 0.145247 0.472535
14 1 0.144975 0.395247 0.472535
83 1 0.22831 0.645247 0.472535
42 1 0.644975 0.395247 0.472535
111 1 0.72831 0.645247 0.472535
70 1 0.144975 0.895247 0.472535
98 1 0.644975 0.895247 0.472535
