ITEM: TIMESTEP
29
ITEM: NUMBER OF ATOMS
112
ITEM: BOX BOUNDS pp pp pp
0.0000000000000000e+00 1.2328198381184540e+01
0.0000000000000000e+00 1.3409956460377600e+01
0.0000000000000000e+00 3.7693498223115995e+01
ITEM: ATOMS id type xs ys zs
16 1 0.24829 0.191205 0.0510664
15 1 0.47831 0.10351 0
17 1 0.489104 0.239694 0.0794024
43 1 0.97831 0.10351 0
44 1 0.74829 0.191205 0.0510664
45 1 0.989104 0.239694 0.0794024
2 1 0.124995 0.441205 0.0510664
1 1 0.394975 0.35351 0
4 1 0.384181 0.489694 0.0794024
30 1 0.624995 0.441205 0.0510664
71 1 0.47831 0.60351 0
29 1 0.894975 0.35351 0
32 1 0.884181 0.489694 0.0794024
99 1 0.97831 0.60351 0
58 1 0.124995 0.941205 0.0510664
72 1 0.24829 0.691205 0.0510664
57 1 0.394975 0.85351 0
60 1 0.384181 0.989694 0.0794024
73 1 0.489104 0.739694 0.0794024
86 1 0.624995 0.941205 0.0510664
85 1 0.894975 0.85351 0
88 1 0.884181 0.989694 0.0794024
100 1 0.74829 0.691205 0.0510664
101 1 0.989104 0.739694 0.0794024
3 1 0.146288 0.0717794 0.123679
6 1 0.140061 0.212428 0.198445
18 1 0.226997 0.321779 0.123679
5 1 0.393869 0.139076 0.15679
31 1 0.646288 0.0717794 0.123679
34 1 0.640061 0.212428 0.198445
33 1 0.893869 0.139076 0.15679
46 1 0.726997 0.321779 0.123679
21 1 0.233224 0.462428 0.198445
59 1 0.146288 0.571779 0.123679
19 1 0.479416 0.389076 0.15679
61 1 0.393869 0.639076 0.15679
87 1 0.646288 0.571779 0.123679
47 1 0.979416 0.389076 0.15679
49 1 0.733224 0.462428 0.198445
89 1 0.893869 0.639076 0.15679
62 1 0.140061 0.712428 0.198445
74 1 0.226997 0.821779 0.123679
77 1 0.233224 0.962428 0.198445
75 1 0.479416 0.889076 0.15679
90 1 0.640061 0.712428 0.198445
102 1 0.726997 0.821779 0.123679
103 1 0.979416 0.889076 0.15679
105 1 0.733224 0.962428 0.198445
22 1 0.232494 0.119302 0.274532
7 1 0.390791 0.279457 0.233083
20 1 0.482494 0.0294574 0.233083
23 1 0.483224 0.186332 0.309169
35 1 0.890791 0.279457 0.233083
48 1 0.982494 0.0294574 0.233083
50 1 0.732494 0.119302 0.274532
51 1 0.983224 0.186332 0.309169
8 1 0.140791 0.369302 0.274532
78 1 0.232494 0.619302 0.274532
9 1 0.390061 0.436332 0.309169
36 1 0.640791 0.369302 0.274532
76 1 0.482494 0.529457 0.233083
37 1 0.890061 0.436332 0.309169
104 1 0.982494 0.529457 0.233083
106 1 0.732494 0.619302 0.274532
64 1 0.140791 0.869302 0.274532
63 1 0.390791 0.779457 0.233083
65 1 0.390061 0.936332 0.309169
79 1 0.483224 0.686332 0.309169
92 1 0.640791 0.869302 0.274532
91 1 0.890791 0.779457 0.233083
93 1 0.890061 0.936332 0.309169
107 1 0.983224 0.686332 0.309169
12 1 0.134182 0.159063 0.428212
24 1 0.229417 0.259683 0.350825
67 1 0.143868 0.00968271 0.350825
10 1 0.396287 0.0769793 0.383936
25 1 0.476998 0.326979 0.383936
40 1 0.634182 0.159063 0.428212
95 1 0.643868 0.00968271 0.350825
38 1 0.896287 0.0769793 0.383936
52 1 0.729417 0.259683 0.350825
53 1 0.976998 0.326979 0.383936
11 1 0.143868 0.509683 0.350825
26 1 0.239103 0.409063 0.428212
68 1 0.134182 0.659063 0.428212
39 1 0.643868 0.509683 0.350825
66 1 0.396287 0.576979 0.383936
96 1 0.634182 0.659063 0.428212
54 1 0.739103 0.409063 0.428212
94 1 0.896287 0.576979 0.383936
80 1 0.229417 0.759683 0.350825
82 1 0.239103 0.909063 0.428212
81 1 0.476998 0.826979 0.383936
108 1 0.729417 0.759683 0.350825
109 1 0.976998 0.826979 0.383936
110 1 0.739103 0.909063 0.428212
14 1 0.144975 0.295247 0.507614
27 1 0.22831 0.0452467 0.507614
13 1 0.374996 0.207554 0.456548
42 1 0.644975 0.295247 0.507614
41 1 0.874996 0.207554 0.456548
55 1 0.72831 0.0452467 0.507614
83 1 0.22831 0.545247 0.507614
28 1 0.498289 0.457554 0.456548
56 1 0.998289 0.457554 0.456548
111 1 0.72831 0.545247 0.507614
70 1 0.144975 0.795247 0.507614
69 1 0.374996 0.707554 0.456548
84 1 0.498289 0.957554 0.456548
98 1 0.644975 0.795247 0.507614
97 1 0.874996 0.707554 0.456548
112 1 0.998289 0.957554 0.456548
