ITEM: TIMESTEP
153
ITEM: NUMBER OF ATOMS
112
ITEM: BOX BOUNDS pp pp pp
0.0000000000000000e+00 1.2328198381184540e+01
0.0000000000000000e+00 1.3409956460377600e+01
0.0000000000000000e+00 3.7693498223115995e+01
ITEM: ATOMS id type xs ys zs
16 1 0.24829 0.191205 0.0455425
15 1 0.47831 0.10351 0
17 1 0.489104 0.239694 0.0749329
43 1 0.97831 0.10351 0
44 1 0.74829 0.191205 0.0455425
45 1 0.989104 0.239694 0.0749329
2 1 0.124995 0.441205 0.0455425
1 1 0.394975 0.35351 0
4 1 0.384181 0.489694 0.0749329
30 1 0.624995 0.441205 0.0455425
71 1 0.47831 0.60351 0
29 1 0.894975 0.35351 0
32 1 0.884181 0.489694 0.0749329
99 1 0.97831 0.60351 0
58 1 0.124995 0.941205 0.0455425
72 1 0.24829 0.691205 0.0455425
57 1 0.394975 0.85351 0
60 1 0.384181 0.989694 0.0749329
73 1 0.489104 0.739694 0.0749329
86 1 0.624995 0.941205 0.0455425
85 1 0.894975 0.85351 0
88 1 0.884181 0.989694 0.0749329
100 1 0.74829 0.691205 0.0455425
101 1 0.989104 0.739694 0.0749329
3 1 0.146288 0.0717794 0.116666
6 1 0.140061 0.212428 0.189343
18 1 0.226997 0.321779 0.116666
5 1 0.393869 0.139076 0.148561
31 1 0.646288 0.0717794 0.116666
34 1 0.640061 0.212428 0.189343
7 1 0.390791 0.279457 0.22072
20 1 0.482494 0.0294574 0.22072
33 1 0.893869 0.139076 0.148561
46 1 0.726997 0.321779 0.116666
35 1 0.890791 0.279457 0.22072
48 1 0.982494 0.0294574 0.22072
21 1 0.233224 0.462428 0.189343
59 1 0.146288 0.571779 0.116666
19 1 0.479416 0.389076 0.148561
61 1 0.393869 0.639076 0.148561
87 1 0.646288 0.571779 0.116666
76 1 0.482494 0.529457 0.22072
47 1 0.979416 0.389076 0.148561
49 1 0.733224 0.462428 0.189343
89 1 0.893869 0.639076 0.148561
104 1 0.982494 0.529457 0.22072
62 1 0.140061 0.712428 0.189343
74 1 0.226997 0.821779 0.116666
77 1 0.233224 0.962428 0.189343
75 1 0.479416 0.889076 0.148561
90 1 0.640061 0.712428 0.189343
63 1 0.390791 0.779457 0.22072
102 1 0.726997 0.821779 0.116666
103 1 0.979416 0.889076 0.148561
105 1 0.733224 0.962428 0.189343
91 1 0.890791 0.779457 0.22072
22 1 0.232494 0.319302 0.286894
64 1 0.140791 0.0693017 0.286894
65 1 0.390061 0.136332 0.318271
92 1 0.640791 0.0693017 0.286894
50 1 0.732494 0.319302 0.286894
93 1 0.890061 0.136332 0.318271
8 1 0.140791 0.569302 0.286894
23 1 0.483224 0.386332 0.318271
9 1 0.390061 0.636332 0.318271
36 1 0.640791 0.569302 0.286894
51 1 0.983224 0.386332 0.318271
37 1 0.890061 0.636332 0.318271
78 1 0.232494 0.819302 0.286894
79 1 0.483224 0.886332 0.318271
106 1 0.732494 0.819302 0.286894
107 1 0.983224 0.886332 0.318271
67 1 0.143868 0.209683 0.359053
82 1 0.239103 0.109063 0.432681
10 1 0.396287 0.276979 0.390949
95 1 0.643868 0.209683 0.359053
81 1 0.476998 0.0269793 0.390949
38 1 0.896287 0.276979 0.390949
110 1 0.739103 0.109063 0.432681
109 1 0.976998 0.0269793 0.390949
12 1 0.134182 0.359063 0.432681
24 1 0.229417 0.459683 0.359053
26 1 0.239103 0.609063 0.432681
40 1 0.634182 0.359063 0.432681
25 1 0.476998 0.526979 0.390949
52 1 0.729417 0.459683 0.359053
53 1 0.976998 0.526979 0.390949
54 1 0.739103 0.609063 0.432681
11 1 0.143868 0.709683 0.359053
68 1 0.134182 0.859063 0.432681
80 1 0.229417 0.959683 0.359053
39 1 0.643868 0.709683 0.359053
66 1 0.396287 0.776979 0.390949
96 1 0.634182 0.859063 0.432681
94 1 0.896287 0.776979 0.390949
108 1 0.729417 0.959683 0.359053
27 1 0.22831 0.245247 0.507614
84 1 0.498289 0.157554 0.462072
55 1 0.72831 0.245247 0.507614
112 1 0.998289 0.157554 0.462072
14 1 0.144975 0.495247 0.507614
13 1 0.374996 0.407554 0.462072
42 1 0.644975 0.495247 0.507614
28 1 0.498289 0.657554 0.462072
41 1 0.874996 0.407554 0.462072
56 1 0.998289 0.657554 0.462072
83 1 0.22831 0.745247 0.507614
70 1 0.144975 0.995247 0.507614
69 1 0.374996 0.907554 0.462072
98 1 0.644975 0.995247 0.507614
111 1 0.72831 0.745247 0.507614
97 1 0.874996 0.907554 0.462072
