ITEM: TIMESTEP
117
ITEM: NUMBER OF ATOMS
112
ITEM: BOX BOUNDS pp pp pp
0.0000000000000000e+00 1.0160888410139860e+01
0.0000000000000000e+00 1.0995765577807459e+01
0.0000000000000000e+00 3.4125699996899996e+01
ITEM: ATOMS id type xs ys zs
3 1 0.147311 0.0603843 0.106021
15 1 0.47831 0.10351 0
16 1 0.232636 0.171172 0.0335617
17 1 0.478197 0.237417 0.0678129
18 1 0.225974 0.310384 0.106021
31 1 0.647311 0.0603843 0.106021
43 1 0.97831 0.10351 0
44 1 0.732636 0.171172 0.0335617
45 1 0.978197 0.237417 0.0678129
46 1 0.725974 0.310384 0.106021
1 1 0.394975 0.35351 0
2 1 0.140649 0.421172 0.0335617
4 1 0.395088 0.487417 0.0678129
59 1 0.147311 0.560384 0.106021
71 1 0.47831 0.60351 0
29 1 0.894975 0.35351 0
30 1 0.640649 0.421172 0.0335617
32 1 0.895088 0.487417 0.0678129
87 1 0.647311 0.560384 0.106021
99 1 0.97831 0.60351 0
57 1 0.394975 0.85351 0
58 1 0.140649 0.921172 0.0335617
60 1 0.395088 0.987417 0.0678129
72 1 0.232636 0.671172 0.0335617
73 1 0.478197 0.737417 0.0678129
74 1 0.225974 0.810384 0.106021
85 1 0.894975 0.85351 0
86 1 0.640649 0.921172 0.0335617
88 1 0.895088 0.987417 0.0678129
100 1 0.732636 0.671172 0.0335617
101 1 0.978197 0.737417 0.0678129
102 1 0.725974 0.810384 0.106021
5 1 0.396718 0.134179 0.141659
6 1 0.146437 0.206866 0.179608
7 1 0.396146 0.279723 0.211908
20 1 0.477139 0.0297229 0.211908
33 1 0.896718 0.134179 0.141659
34 1 0.646437 0.206866 0.179608
35 1 0.896146 0.279723 0.211908
48 1 0.977139 0.0297229 0.211908
19 1 0.476567 0.384179 0.141659
21 1 0.226848 0.456866 0.179608
61 1 0.396718 0.634179 0.141659
76 1 0.477139 0.529723 0.211908
47 1 0.976567 0.384179 0.141659
49 1 0.726848 0.456866 0.179608
89 1 0.896718 0.634179 0.141659
104 1 0.977139 0.529723 0.211908
62 1 0.146437 0.706866 0.179608
63 1 0.396146 0.779723 0.211908
75 1 0.476567 0.884179 0.141659
77 1 0.226848 0.956866 0.179608
90 1 0.646437 0.706866 0.179608
91 1 0.896146 0.779723 0.211908
103 1 0.976567 0.884179 0.141659
105 1 0.726848 0.956866 0.179608
22 1 0.227139 0.319036 0.260628
67 1 0.146718 0.21458 0.330876
65 1 0.396437 0.141892 0.292927
64 1 0.146146 0.0690356 0.260628
50 1 0.727139 0.319036 0.260628
95 1 0.646718 0.21458 0.330876
93 1 0.896437 0.141892 0.292927
92 1 0.646146 0.0690356 0.260628
23 1 0.476848 0.391892 0.292927
24 1 0.226567 0.46458 0.330876
8 1 0.146146 0.569036 0.260628
9 1 0.396437 0.641892 0.292927
51 1 0.976848 0.391892 0.292927
52 1 0.726567 0.46458 0.330876
36 1 0.646146 0.569036 0.260628
37 1 0.896437 0.641892 0.292927
11 1 0.146718 0.71458 0.330876
78 1 0.227139 0.819036 0.260628
79 1 0.476848 0.891892 0.292927
80 1 0.226567 0.96458 0.330876
39 1 0.646718 0.71458 0.330876
106 1 0.727139 0.819036 0.260628
107 1 0.976848 0.891892 0.292927
108 1 0.726567 0.96458 0.330876
10 1 0.397311 0.288374 0.366514
84 1 0.482636 0.177585 0.438974
82 1 0.228197 0.111341 0.404723
81 1 0.475974 0.0383737 0.366514
38 1 0.897311 0.288374 0.366514
112 1 0.982636 0.177585 0.438974
110 1 0.728197 0.111341 0.404723
109 1 0.975974 0.0383737 0.366514
12 1 0.145088 0.36134 0.404723
13 1 0.390649 0.427585 0.438974
25 1 0.475974 0.538374 0.366514
26 1 0.228197 0.611341 0.404723
40 1 0.645088 0.36134 0.404723
41 1 0.890649 0.427585 0.438974
53 1 0.975974 0.538374 0.366514
54 1 0.728197 0.611341 0.404723
28 1 0.482636 0.677585 0.438974
66 1 0.397311 0.788374 0.366514
68 1 0.145088 0.86134 0.404723
69 1 0.390649 0.927585 0.438974
56 1 0.982636 0.677585 0.438974
94 1 0.897311 0.788374 0.366514
96 1 0.645088 0.86134 0.404723
97 1 0.890649 0.927585 0.438974
27 1 0.22831 0.245247 0.472535
55 1 0.72831 0.245247 0.472535
14 1 0.144975 0.495247 0.472535
42 1 0.644975 0.495247 0.472535
83 1 0.22831 0.745247 0.472535
70 1 0.144975 0.995247 0.472535
111 1 0.72831 0.745247 0.472535
98 1 0.644975 0.995247 0.472535
