ITEM: TIMESTEP
228
ITEM: NUMBER OF ATOMS
112
ITEM: BOX BOUNDS pp pp pp
0.0000000000000000e+00 1.2328198381184540e+01
0.0000000000000000e+00 1.3409956460377600e+01
0.0000000000000000e+00 3.7693498223115995e+01
ITEM: ATOMS id type xs ys zs
16 1 0.24829 0.191205 0.0474026
15 1 0.47831 0.10351 0
17 1 0.489104 0.239694 0.0766978
43 1 0.97831 0.10351 0
44 1 0.74829 0.191205 0.0474026
45 1 0.989104 0.239694 0.0766978
2 1 0.124995 0.441205 0.0474026
1 1 0.394975 0.35351 0
4 1 0.384181 0.489694 0.0766978
30 1 0.624995 0.441205 0.0474026
71 1 0.47831 0.60351 0
29 1 0.894975 0.35351 0
32 1 0.884181 0.489694 0.0766978
99 1 0.97831 0.60351 0
58 1 0.124995 0.941205 0.0474026
72 1 0.24829 0.691205 0.0474026
57 1 0.394975 0.85351 0
60 1 0.384181 0.989694 0.0766978
73 1 0.489104 0.739694 0.0766978
86 1 0.624995 0.941205 0.0474026
85 1 0.894975 0.85351 0
88 1 0.884181 0.989694 0.0766978
100 1 0.74829 0.691205 0.0474026
101 1 0.989104 0.739694 0.0766978
3 1 0.146288 0.0717794 0.119009
6 1 0.140061 0.212428 0.191697
18 1 0.226997 0.321779 0.119009
5 1 0.393869 0.139076 0.1519
31 1 0.646288 0.0717794 0.119009
34 1 0.640061 0.212428 0.191697
33 1 0.893869 0.139076 0.1519
46 1 0.726997 0.321779 0.119009
21 1 0.233224 0.462428 0.191697
59 1 0.146288 0.571779 0.119009
19 1 0.479416 0.389076 0.1519
61 1 0.393869 0.639076 0.1519
87 1 0.646288 0.571779 0.119009
47 1 0.979416 0.389076 0.1519
49 1 0.733224 0.462428 0.191697
89 1 0.893869 0.639076 0.1519
62 1 0.140061 0.712428 0.191697
74 1 0.226997 0.821779 0.119009
77 1 0.233224 0.962428 0.191697
75 1 0.479416 0.889076 0.1519
90 1 0.640061 0.712428 0.191697
102 1 0.726997 0.821779 0.119009
103 1 0.979416 0.889076 0.1519
105 1 0.733224 0.962428 0.191697
64 1 0.140791 0.219302 0.280575
7 1 0.390791 0.279457 0.227039
20 1 0.482494 0.0294574 0.227039
65 1 0.390061 0.286332 0.315917
92 1 0.640791 0.219302 0.280575
79 1 0.483224 0.0363315 0.315917
35 1 0.890791 0.279457 0.227039
48 1 0.982494 0.0294574 0.227039
93 1 0.890061 0.286332 0.315917
107 1 0.983224 0.0363315 0.315917
22 1 0.232494 0.469302 0.280575
76 1 0.482494 0.529457 0.227039
23 1 0.483224 0.536332 0.315917
104 1 0.982494 0.529457 0.227039
50 1 0.732494 0.469302 0.280575
51 1 0.983224 0.536332 0.315917
8 1 0.140791 0.719302 0.280575
78 1 0.232494 0.969302 0.280575
36 1 0.640791 0.719302 0.280575
63 1 0.390791 0.779457 0.227039
9 1 0.390061 0.786332 0.315917
91 1 0.890791 0.779457 0.227039
37 1 0.890061 0.786332 0.315917
106 1 0.732494 0.969302 0.280575
82 1 0.239103 0.259063 0.430916
80 1 0.229417 0.109683 0.355714
68 1 0.134182 0.00906292 0.430916
81 1 0.476998 0.176979 0.388606
96 1 0.634182 0.00906292 0.430916
110 1 0.739103 0.259063 0.430916
109 1 0.976998 0.176979 0.388606
108 1 0.729417 0.109683 0.355714
67 1 0.143868 0.359683 0.355714
12 1 0.134182 0.509063 0.430916
24 1 0.229417 0.609683 0.355714
95 1 0.643868 0.359683 0.355714
10 1 0.396287 0.426979 0.388606
40 1 0.634182 0.509063 0.430916
38 1 0.896287 0.426979 0.388606
52 1 0.729417 0.609683 0.355714
26 1 0.239103 0.759063 0.430916
11 1 0.143868 0.859683 0.355714
25 1 0.476998 0.676979 0.388606
39 1 0.643868 0.859683 0.355714
66 1 0.396287 0.926979 0.388606
53 1 0.976998 0.676979 0.388606
54 1 0.739103 0.759063 0.430916
94 1 0.896287 0.926979 0.388606
70 1 0.144975 0.145247 0.507614
84 1 0.498289 0.307554 0.460212
98 1 0.644975 0.145247 0.507614
69 1 0.374996 0.0575536 0.460212
112 1 0.998289 0.307554 0.460212
97 1 0.874996 0.0575536 0.460212
27 1 0.22831 0.395247 0.507614
14 1 0.144975 0.645247 0.507614
13 1 0.374996 0.557554 0.460212
42 1 0.644975 0.645247 0.507614
55 1 0.72831 0.395247 0.507614
41 1 0.874996 0.557554 0.460212
83 1 0.22831 0.895247 0.507614
28 1 0.498289 0.807554 0.460212
56 1 0.998289 0.807554 0.460212
111 1 0.72831 0.895247 0.507614
