ITEM: TIMESTEP
55
ITEM: NUMBER OF ATOMS
112
ITEM: BOX BOUNDS pp pp pp
0.0000000000000000e+00 1.0160888410139860e+01
0.0000000000000000e+00 1.0995765577807459e+01
0.0000000000000000e+00 3.4125699996899996e+01
ITEM: ATOMS id type xs ys zs
3 1 0.147311 0.0603843 0.10628
15 1 0.47831 0.10351 0
16 1 0.232636 0.171172 0.0336479
17 1 0.478197 0.237417 0.0681549
18 1 0.225974 0.310384 0.10628
31 1 0.647311 0.0603843 0.10628
43 1 0.97831 0.10351 0
44 1 0.732636 0.171172 0.0336479
45 1 0.978197 0.237417 0.0681549
46 1 0.725974 0.310384 0.10628
1 1 0.394975 0.35351 0
2 1 0.140649 0.421172 0.0336479
4 1 0.395088 0.487417 0.0681549
59 1 0.147311 0.560384 0.10628
71 1 0.47831 0.60351 0
29 1 0.894975 0.35351 0
30 1 0.640649 0.421172 0.0336479
32 1 0.895088 0.487417 0.0681549
87 1 0.647311 0.560384 0.10628
99 1 0.97831 0.60351 0
57 1 0.394975 0.85351 0
58 1 0.140649 0.921172 0.0336479
60 1 0.395088 0.987417 0.0681549
72 1 0.232636 0.671172 0.0336479
73 1 0.478197 0.737417 0.0681549
74 1 0.225974 0.810384 0.10628
85 1 0.894975 0.85351 0
86 1 0.640649 0.921172 0.0336479
88 1 0.895088 0.987417 0.0681549
100 1 0.732636 0.671172 0.0336479
101 1 0.978197 0.737417 0.0681549
102 1 0.725974 0.810384 0.10628
5 1 0.396718 0.134179 0.14252
6 1 0.146437 0.206866 0.179077
7 1 0.396146 0.279723 0.213141
20 1 0.477139 0.0297229 0.213141
33 1 0.896718 0.134179 0.14252
34 1 0.646437 0.206866 0.179077
35 1 0.896146 0.279723 0.213141
48 1 0.977139 0.0297229 0.213141
19 1 0.476567 0.384179 0.14252
21 1 0.226848 0.456866 0.179077
61 1 0.396718 0.634179 0.14252
76 1 0.477139 0.529723 0.213141
47 1 0.976567 0.384179 0.14252
49 1 0.726848 0.456866 0.179077
89 1 0.896718 0.634179 0.14252
104 1 0.977139 0.529723 0.213141
62 1 0.146437 0.706866 0.179077
63 1 0.396146 0.779723 0.213141
75 1 0.476567 0.884179 0.14252
77 1 0.226848 0.956866 0.179077
90 1 0.646437 0.706866 0.179077
91 1 0.896146 0.779723 0.213141
103 1 0.976567 0.884179 0.14252
105 1 0.726848 0.956866 0.179077
22 1 0.227139 0.185702 0.259394
23 1 0.476848 0.258559 0.293459
24 1 0.226567 0.331246 0.330015
67 1 0.146718 0.0812463 0.330015
65 1 0.396437 0.0085591 0.293459
50 1 0.727139 0.185702 0.259394
51 1 0.976848 0.258559 0.293459
52 1 0.726567 0.331246 0.330015
95 1 0.646718 0.0812463 0.330015
93 1 0.896437 0.0085591 0.293459
8 1 0.146146 0.435702 0.259394
9 1 0.396437 0.508559 0.293459
11 1 0.146718 0.581246 0.330015
36 1 0.646146 0.435702 0.259394
37 1 0.896437 0.508559 0.293459
39 1 0.646718 0.581246 0.330015
78 1 0.227139 0.685702 0.259394
64 1 0.146146 0.935702 0.259394
79 1 0.476848 0.758559 0.293459
80 1 0.226567 0.831246 0.330015
106 1 0.727139 0.685702 0.259394
92 1 0.646146 0.935702 0.259394
107 1 0.976848 0.758559 0.293459
108 1 0.726567 0.831246 0.330015
10 1 0.397311 0.15504 0.366256
12 1 0.145088 0.228007 0.404381
13 1 0.390649 0.294252 0.438888
84 1 0.482636 0.0442518 0.438888
38 1 0.897311 0.15504 0.366256
40 1 0.645088 0.228007 0.404381
41 1 0.890649 0.294252 0.438888
112 1 0.982636 0.0442518 0.438888
25 1 0.475974 0.40504 0.366256
26 1 0.228197 0.478007 0.404381
28 1 0.482636 0.544252 0.438888
66 1 0.397311 0.65504 0.366256
53 1 0.975974 0.40504 0.366256
54 1 0.728197 0.478007 0.404381
56 1 0.982636 0.544252 0.438888
94 1 0.897311 0.65504 0.366256
68 1 0.145088 0.728007 0.404381
69 1 0.390649 0.794252 0.438888
81 1 0.475974 0.90504 0.366256
82 1 0.228197 0.978007 0.404381
96 1 0.645088 0.728007 0.404381
97 1 0.890649 0.794252 0.438888
109 1 0.975974 0.90504 0.366256
110 1 0.728197 0.978007 0.404381
27 1 0.22831 0.111913 0.472535
55 1 0.72831 0.111913 0.472535
14 1 0.144975 0.361913 0.472535
83 1 0.22831 0.611913 0.472535
42 1 0.644975 0.361913 0.472535
111 1 0.72831 0.611913 0.472535
70 1 0.144975 0.861913 0.472535
98 1 0.644975 0.861913 0.472535
