ITEM: TIMESTEP
65
ITEM: NUMBER OF ATOMS
112
ITEM: BOX BOUNDS pp pp pp
0.0000000000000000e+00 1.2328198381184540e+01
0.0000000000000000e+00 1.3409956460377600e+01
0.0000000000000000e+00 3.7693498223115995e+01
ITEM: ATOMS id type xs ys zs
16 1 0.24829 0.191205 0.0490018
15 1 0.47831 0.10351 0
17 1 0.489104 0.239694 0.0772196
43 1 0.97831 0.10351 0
44 1 0.74829 0.191205 0.0490018
45 1 0.989104 0.239694 0.0772196
2 1 0.124995 0.441205 0.0490018
1 1 0.394975 0.35351 0
4 1 0.384181 0.489694 0.0772196
30 1 0.624995 0.441205 0.0490018
71 1 0.47831 0.60351 0
29 1 0.894975 0.35351 0
32 1 0.884181 0.489694 0.0772196
99 1 0.97831 0.60351 0
58 1 0.124995 0.941205 0.0490018
72 1 0.24829 0.691205 0.0490018
57 1 0.394975 0.85351 0
60 1 0.384181 0.989694 0.0772196
73 1 0.489104 0.739694 0.0772196
86 1 0.624995 0.941205 0.0490018
85 1 0.894975 0.85351 0
88 1 0.884181 0.989694 0.0772196
100 1 0.74829 0.691205 0.0490018
101 1 0.989104 0.739694 0.0772196
3 1 0.146288 0.0717794 0.121228
6 1 0.140061 0.212428 0.19544
18 1 0.226997 0.321779 0.121228
5 1 0.393869 0.139076 0.1526
31 1 0.646288 0.0717794 0.121228
34 1 0.640061 0.212428 0.19544
33 1 0.893869 0.139076 0.1526
46 1 0.726997 0.321779 0.121228
21 1 0.233224 0.462428 0.19544
59 1 0.146288 0.571779 0.121228
19 1 0.479416 0.389076 0.1526
61 1 0.393869 0.639076 0.1526
87 1 0.646288 0.571779 0.121228
47 1 0.979416 0.389076 0.1526
49 1 0.733224 0.462428 0.19544
89 1 0.893869 0.639076 0.1526
62 1 0.140061 0.712428 0.19544
74 1 0.226997 0.821779 0.121228
77 1 0.233224 0.962428 0.19544
75 1 0.479416 0.889076 0.1526
90 1 0.640061 0.712428 0.19544
102 1 0.726997 0.821779 0.121228
103 1 0.979416 0.889076 0.1526
105 1 0.733224 0.962428 0.19544
22 1 0.232494 0.185968 0.281038
7 1 0.390791 0.279457 0.226576
20 1 0.482494 0.0294574 0.226576
23 1 0.483224 0.252998 0.312174
65 1 0.390061 0.00299822 0.312174
35 1 0.890791 0.279457 0.226576
48 1 0.982494 0.0294574 0.226576
50 1 0.732494 0.185968 0.281038
51 1 0.983224 0.252998 0.312174
93 1 0.890061 0.00299822 0.312174
8 1 0.140791 0.435968 0.281038
9 1 0.390061 0.502998 0.312174
36 1 0.640791 0.435968 0.281038
76 1 0.482494 0.529457 0.226576
37 1 0.890061 0.502998 0.312174
104 1 0.982494 0.529457 0.226576
78 1 0.232494 0.685968 0.281038
64 1 0.140791 0.935968 0.281038
63 1 0.390791 0.779457 0.226576
79 1 0.483224 0.752998 0.312174
92 1 0.640791 0.935968 0.281038
106 1 0.732494 0.685968 0.281038
91 1 0.890791 0.779457 0.226576
107 1 0.983224 0.752998 0.312174
12 1 0.134182 0.22573 0.430395
24 1 0.229417 0.326349 0.355015
67 1 0.143868 0.0763494 0.355015
10 1 0.396287 0.143646 0.386386
40 1 0.634182 0.22573 0.430395
95 1 0.643868 0.0763494 0.355015
38 1 0.896287 0.143646 0.386386
52 1 0.729417 0.326349 0.355015
11 1 0.143868 0.576349 0.355015
26 1 0.239103 0.47573 0.430395
25 1 0.476998 0.393646 0.386386
39 1 0.643868 0.576349 0.355015
66 1 0.396287 0.643646 0.386386
53 1 0.976998 0.393646 0.386386
54 1 0.739103 0.47573 0.430395
94 1 0.896287 0.643646 0.386386
68 1 0.134182 0.72573 0.430395
80 1 0.229417 0.826349 0.355015
82 1 0.239103 0.97573 0.430395
96 1 0.634182 0.72573 0.430395
81 1 0.476998 0.893646 0.386386
108 1 0.729417 0.826349 0.355015
109 1 0.976998 0.893646 0.386386
110 1 0.739103 0.97573 0.430395
27 1 0.22831 0.111913 0.507614
13 1 0.374996 0.27422 0.458613
84 1 0.498289 0.0242202 0.458613
41 1 0.874996 0.27422 0.458613
55 1 0.72831 0.111913 0.507614
112 1 0.998289 0.0242202 0.458613
14 1 0.144975 0.361913 0.507614
83 1 0.22831 0.611913 0.507614
42 1 0.644975 0.361913 0.507614
28 1 0.498289 0.52422 0.458613
56 1 0.998289 0.52422 0.458613
111 1 0.72831 0.611913 0.507614
70 1 0.144975 0.861913 0.507614
69 1 0.374996 0.77422 0.458613
98 1 0.644975 0.861913 0.507614
97 1 0.874996 0.77422 0.458613
