ITEM: TIMESTEP
252
ITEM: NUMBER OF ATOMS
112
ITEM: BOX BOUNDS pp pp pp
0.0000000000000000e+00 1.2328198381184540e+01
0.0000000000000000e+00 1.3409956460377600e+01
0.0000000000000000e+00 3.7693498223115995e+01
ITEM: ATOMS id type xs ys zs
16 1 0.24829 0.191205 0.0477156
15 1 0.47831 0.10351 0
17 1 0.489104 0.239694 0.0769346
43 1 0.97831 0.10351 0
44 1 0.74829 0.191205 0.0477156
45 1 0.989104 0.239694 0.0769346
2 1 0.124995 0.441205 0.0477156
1 1 0.394975 0.35351 0
4 1 0.384181 0.489694 0.0769346
30 1 0.624995 0.441205 0.0477156
71 1 0.47831 0.60351 0
29 1 0.894975 0.35351 0
32 1 0.884181 0.489694 0.0769346
99 1 0.97831 0.60351 0
58 1 0.124995 0.941205 0.0477156
72 1 0.24829 0.691205 0.0477156
57 1 0.394975 0.85351 0
60 1 0.384181 0.989694 0.0769346
73 1 0.489104 0.739694 0.0769346
86 1 0.624995 0.941205 0.0477156
85 1 0.894975 0.85351 0
88 1 0.884181 0.989694 0.0769346
100 1 0.74829 0.691205 0.0477156
101 1 0.989104 0.739694 0.0769346
3 1 0.146288 0.0717794 0.119378
6 1 0.140061 0.212428 0.19245
18 1 0.226997 0.321779 0.119378
5 1 0.393869 0.139076 0.152335
31 1 0.646288 0.0717794 0.119378
34 1 0.640061 0.212428 0.19245
33 1 0.893869 0.139076 0.152335
46 1 0.726997 0.321779 0.119378
21 1 0.233224 0.462428 0.19245
59 1 0.146288 0.571779 0.119378
19 1 0.479416 0.389076 0.152335
61 1 0.393869 0.639076 0.152335
87 1 0.646288 0.571779 0.119378
47 1 0.979416 0.389076 0.152335
49 1 0.733224 0.462428 0.19245
89 1 0.893869 0.639076 0.152335
62 1 0.140061 0.712428 0.19245
74 1 0.226997 0.821779 0.119378
77 1 0.233224 0.962428 0.19245
75 1 0.479416 0.889076 0.152335
90 1 0.640061 0.712428 0.19245
102 1 0.726997 0.821779 0.119378
103 1 0.979416 0.889076 0.152335
105 1 0.733224 0.962428 0.19245
64 1 0.140791 0.269302 0.27948
78 1 0.232494 0.0193017 0.27948
7 1 0.390791 0.279457 0.228134
20 1 0.482494 0.0294574 0.228134
92 1 0.640791 0.269302 0.27948
79 1 0.483224 0.0863315 0.315164
35 1 0.890791 0.279457 0.228134
48 1 0.982494 0.0294574 0.228134
107 1 0.983224 0.0863315 0.315164
106 1 0.732494 0.0193017 0.27948
22 1 0.232494 0.519302 0.27948
65 1 0.390061 0.336332 0.315164
76 1 0.482494 0.529457 0.228134
23 1 0.483224 0.586332 0.315164
93 1 0.890061 0.336332 0.315164
104 1 0.982494 0.529457 0.228134
50 1 0.732494 0.519302 0.27948
51 1 0.983224 0.586332 0.315164
8 1 0.140791 0.769302 0.27948
36 1 0.640791 0.769302 0.27948
63 1 0.390791 0.779457 0.228134
9 1 0.390061 0.836332 0.315164
91 1 0.890791 0.779457 0.228134
37 1 0.890061 0.836332 0.315164
82 1 0.239103 0.309063 0.43068
80 1 0.229417 0.159683 0.355279
68 1 0.134182 0.0590629 0.43068
81 1 0.476998 0.226979 0.388237
96 1 0.634182 0.0590629 0.43068
110 1 0.739103 0.309063 0.43068
109 1 0.976998 0.226979 0.388237
108 1 0.729417 0.159683 0.355279
67 1 0.143868 0.409683 0.355279
12 1 0.134182 0.559063 0.43068
24 1 0.229417 0.659683 0.355279
95 1 0.643868 0.409683 0.355279
10 1 0.396287 0.476979 0.388237
40 1 0.634182 0.559063 0.43068
38 1 0.896287 0.476979 0.388237
52 1 0.729417 0.659683 0.355279
26 1 0.239103 0.809063 0.43068
11 1 0.143868 0.909683 0.355279
25 1 0.476998 0.726979 0.388237
39 1 0.643868 0.909683 0.355279
66 1 0.396287 0.976979 0.388237
53 1 0.976998 0.726979 0.388237
54 1 0.739103 0.809063 0.43068
94 1 0.896287 0.976979 0.388237
70 1 0.144975 0.195247 0.507614
98 1 0.644975 0.195247 0.507614
69 1 0.374996 0.107554 0.459899
97 1 0.874996 0.107554 0.459899
27 1 0.22831 0.445247 0.507614
84 1 0.498289 0.357554 0.459899
13 1 0.374996 0.607554 0.459899
112 1 0.998289 0.357554 0.459899
55 1 0.72831 0.445247 0.507614
41 1 0.874996 0.607554 0.459899
14 1 0.144975 0.695247 0.507614
83 1 0.22831 0.945247 0.507614
42 1 0.644975 0.695247 0.507614
28 1 0.498289 0.857554 0.459899
56 1 0.998289 0.857554 0.459899
111 1 0.72831 0.945247 0.507614
