ITEM: TIMESTEP
180
ITEM: NUMBER OF ATOMS
112
ITEM: BOX BOUNDS pp pp pp
0.0000000000000000e+00 1.0160888410139860e+01
0.0000000000000000e+00 1.0995765577807459e+01
0.0000000000000000e+00 3.4125699996899996e+01
ITEM: ATOMS id type xs ys zs
3 1 0.147311 0.0603843 0.104525
15 1 0.47831 0.10351 0
16 1 0.232636 0.171172 0.0326774
17 1 0.478197 0.237417 0.0676182
18 1 0.225974 0.310384 0.104525
31 1 0.647311 0.0603843 0.104525
43 1 0.97831 0.10351 0
44 1 0.732636 0.171172 0.0326774
45 1 0.978197 0.237417 0.0676182
46 1 0.725974 0.310384 0.104525
1 1 0.394975 0.35351 0
2 1 0.140649 0.421172 0.0326774
4 1 0.395088 0.487417 0.0676182
59 1 0.147311 0.560384 0.104525
71 1 0.47831 0.60351 0
29 1 0.894975 0.35351 0
30 1 0.640649 0.421172 0.0326774
32 1 0.895088 0.487417 0.0676182
87 1 0.647311 0.560384 0.104525
99 1 0.97831 0.60351 0
57 1 0.394975 0.85351 0
58 1 0.140649 0.921172 0.0326774
60 1 0.395088 0.987417 0.0676182
72 1 0.232636 0.671172 0.0326774
73 1 0.478197 0.737417 0.0676182
74 1 0.225974 0.810384 0.104525
85 1 0.894975 0.85351 0
86 1 0.640649 0.921172 0.0326774
88 1 0.895088 0.987417 0.0676182
100 1 0.732636 0.671172 0.0326774
101 1 0.978197 0.737417 0.0676182
102 1 0.725974 0.810384 0.104525
5 1 0.396718 0.134179 0.141566
6 1 0.146437 0.206866 0.176799
7 1 0.396146 0.279723 0.213937
20 1 0.477139 0.0297229 0.213937
33 1 0.896718 0.134179 0.141566
34 1 0.646437 0.206866 0.176799
35 1 0.896146 0.279723 0.213937
48 1 0.977139 0.0297229 0.213937
19 1 0.476567 0.384179 0.141566
21 1 0.226848 0.456866 0.176799
61 1 0.396718 0.634179 0.141566
76 1 0.477139 0.529723 0.213937
47 1 0.976567 0.384179 0.141566
49 1 0.726848 0.456866 0.176799
89 1 0.896718 0.634179 0.141566
104 1 0.977139 0.529723 0.213937
62 1 0.146437 0.706866 0.176799
63 1 0.396146 0.779723 0.213937
75 1 0.476567 0.884179 0.141566
77 1 0.226848 0.956866 0.176799
90 1 0.646437 0.706866 0.176799
91 1 0.896146 0.779723 0.213937
103 1 0.976567 0.884179 0.141566
105 1 0.726848 0.956866 0.176799
65 1 0.396437 0.291892 0.295736
64 1 0.146146 0.219036 0.258598
80 1 0.226567 0.11458 0.33097
79 1 0.476848 0.0418924 0.295736
93 1 0.896437 0.291892 0.295736
92 1 0.646146 0.219036 0.258598
108 1 0.726567 0.11458 0.33097
107 1 0.976848 0.0418924 0.295736
67 1 0.146718 0.36458 0.33097
22 1 0.227139 0.469036 0.258598
23 1 0.476848 0.541892 0.295736
24 1 0.226567 0.61458 0.33097
95 1 0.646718 0.36458 0.33097
50 1 0.727139 0.469036 0.258598
51 1 0.976848 0.541892 0.295736
52 1 0.726567 0.61458 0.33097
8 1 0.146146 0.719036 0.258598
9 1 0.396437 0.791892 0.295736
11 1 0.146718 0.86458 0.33097
78 1 0.227139 0.969036 0.258598
36 1 0.646146 0.719036 0.258598
37 1 0.896437 0.791892 0.295736
39 1 0.646718 0.86458 0.33097
106 1 0.727139 0.969036 0.258598
84 1 0.482636 0.327585 0.439858
82 1 0.228197 0.261341 0.404917
81 1 0.475974 0.188374 0.368011
69 1 0.390649 0.0775851 0.439858
68 1 0.145088 0.0113401 0.404917
112 1 0.982636 0.327585 0.439858
110 1 0.728197 0.261341 0.404917
109 1 0.975974 0.188374 0.368011
97 1 0.890649 0.0775851 0.439858
96 1 0.645088 0.0113401 0.404917
10 1 0.397311 0.438374 0.368011
12 1 0.145088 0.51134 0.404917
13 1 0.390649 0.577585 0.439858
38 1 0.897311 0.438374 0.368011
40 1 0.645088 0.51134 0.404917
41 1 0.890649 0.577585 0.439858
25 1 0.475974 0.688374 0.368011
26 1 0.228197 0.761341 0.404917
28 1 0.482636 0.827585 0.439858
66 1 0.397311 0.938374 0.368011
53 1 0.975974 0.688374 0.368011
54 1 0.728197 0.761341 0.404917
56 1 0.982636 0.827585 0.439858
94 1 0.897311 0.938374 0.368011
70 1 0.144975 0.145247 0.472535
98 1 0.644975 0.145247 0.472535
27 1 0.22831 0.395247 0.472535
14 1 0.144975 0.645247 0.472535
55 1 0.72831 0.395247 0.472535
42 1 0.644975 0.645247 0.472535
83 1 0.22831 0.895247 0.472535
111 1 0.72831 0.895247 0.472535
