ITEM: TIMESTEP
175
ITEM: NUMBER OF ATOMS
112
ITEM: BOX BOUNDS pp pp pp
0.0000000000000000e+00 1.2328198381184540e+01
0.0000000000000000e+00 1.3409956460377600e+01
0.0000000000000000e+00 3.7693498223115995e+01
ITEM: ATOMS id type xs ys zs
16 1 0.24829 0.191205 0.047588
15 1 0.47831 0.10351 0
17 1 0.489104 0.239694 0.0763656
43 1 0.97831 0.10351 0
44 1 0.74829 0.191205 0.047588
45 1 0.989104 0.239694 0.0763656
2 1 0.124995 0.441205 0.047588
1 1 0.394975 0.35351 0
4 1 0.384181 0.489694 0.0763656
30 1 0.624995 0.441205 0.047588
71 1 0.47831 0.60351 0
29 1 0.894975 0.35351 0
32 1 0.884181 0.489694 0.0763656
99 1 0.97831 0.60351 0
58 1 0.124995 0.941205 0.047588
72 1 0.24829 0.691205 0.047588
57 1 0.394975 0.85351 0
60 1 0.384181 0.989694 0.0763656
73 1 0.489104 0.739694 0.0763656
86 1 0.624995 0.941205 0.047588
85 1 0.894975 0.85351 0
88 1 0.884181 0.989694 0.0763656
100 1 0.74829 0.691205 0.047588
101 1 0.989104 0.739694 0.0763656
3 1 0.146288 0.0717794 0.119322
6 1 0.140061 0.212428 0.193103
18 1 0.226997 0.321779 0.119322
5 1 0.393869 0.139076 0.151068
31 1 0.646288 0.0717794 0.119322
34 1 0.640061 0.212428 0.193103
33 1 0.893869 0.139076 0.151068
46 1 0.726997 0.321779 0.119322
21 1 0.233224 0.462428 0.193103
59 1 0.146288 0.571779 0.119322
19 1 0.479416 0.389076 0.151068
61 1 0.393869 0.639076 0.151068
87 1 0.646288 0.571779 0.119322
47 1 0.979416 0.389076 0.151068
49 1 0.733224 0.462428 0.193103
89 1 0.893869 0.639076 0.151068
62 1 0.140061 0.712428 0.193103
74 1 0.226997 0.821779 0.119322
77 1 0.233224 0.962428 0.193103
75 1 0.479416 0.889076 0.151068
90 1 0.640061 0.712428 0.193103
102 1 0.726997 0.821779 0.119322
103 1 0.979416 0.889076 0.151068
105 1 0.733224 0.962428 0.193103
64 1 0.140791 0.102635 0.282508
7 1 0.390791 0.279457 0.225107
20 1 0.482494 0.0294574 0.225107
65 1 0.390061 0.169665 0.314512
92 1 0.640791 0.102635 0.282508
35 1 0.890791 0.279457 0.225107
48 1 0.982494 0.0294574 0.225107
93 1 0.890061 0.169665 0.314512
22 1 0.232494 0.352635 0.282508
8 1 0.140791 0.602635 0.282508
76 1 0.482494 0.529457 0.225107
23 1 0.483224 0.419665 0.314512
36 1 0.640791 0.602635 0.282508
104 1 0.982494 0.529457 0.225107
50 1 0.732494 0.352635 0.282508
51 1 0.983224 0.419665 0.314512
78 1 0.232494 0.852635 0.282508
63 1 0.390791 0.779457 0.225107
9 1 0.390061 0.669665 0.314512
79 1 0.483224 0.919665 0.314512
91 1 0.890791 0.779457 0.225107
37 1 0.890061 0.669665 0.314512
106 1 0.732494 0.852635 0.282508
107 1 0.983224 0.919665 0.314512
67 1 0.143868 0.243016 0.356546
82 1 0.239103 0.142396 0.431248
10 1 0.396287 0.310313 0.388292
95 1 0.643868 0.243016 0.356546
81 1 0.476998 0.0603126 0.388292
38 1 0.896287 0.310313 0.388292
110 1 0.739103 0.142396 0.431248
109 1 0.976998 0.0603126 0.388292
12 1 0.134182 0.392396 0.431248
24 1 0.229417 0.493016 0.356546
26 1 0.239103 0.642396 0.431248
40 1 0.634182 0.392396 0.431248
25 1 0.476998 0.560313 0.388292
52 1 0.729417 0.493016 0.356546
53 1 0.976998 0.560313 0.388292
54 1 0.739103 0.642396 0.431248
11 1 0.143868 0.743016 0.356546
68 1 0.134182 0.892396 0.431248
80 1 0.229417 0.993016 0.356546
39 1 0.643868 0.743016 0.356546
66 1 0.396287 0.810313 0.388292
96 1 0.634182 0.892396 0.431248
94 1 0.896287 0.810313 0.388292
108 1 0.729417 0.993016 0.356546
27 1 0.22831 0.27858 0.507614
70 1 0.144975 0.02858 0.507614
84 1 0.498289 0.190887 0.460026
98 1 0.644975 0.02858 0.507614
55 1 0.72831 0.27858 0.507614
112 1 0.998289 0.190887 0.460026
14 1 0.144975 0.52858 0.507614
13 1 0.374996 0.440887 0.460026
42 1 0.644975 0.52858 0.507614
41 1 0.874996 0.440887 0.460026
83 1 0.22831 0.77858 0.507614
28 1 0.498289 0.690887 0.460026
69 1 0.374996 0.940887 0.460026
56 1 0.998289 0.690887 0.460026
111 1 0.72831 0.77858 0.507614
97 1 0.874996 0.940887 0.460026
