ITEM: TIMESTEP
38
ITEM: NUMBER OF ATOMS
112
ITEM: BOX BOUNDS pp pp pp
0.0000000000000000e+00 1.0160888410139860e+01
0.0000000000000000e+00 1.0995765577807459e+01
0.0000000000000000e+00 3.4125699996899996e+01
ITEM: ATOMS id type xs ys zs
3 1 0.147311 0.0603843 0.106707
15 1 0.47831 0.10351 0
16 1 0.232636 0.171172 0.034054
17 1 0.478197 0.237417 0.0686375
18 1 0.225974 0.310384 0.106707
31 1 0.647311 0.0603843 0.106707
43 1 0.97831 0.10351 0
44 1 0.732636 0.171172 0.034054
45 1 0.978197 0.237417 0.0686375
46 1 0.725974 0.310384 0.106707
1 1 0.394975 0.35351 0
2 1 0.140649 0.421172 0.034054
4 1 0.395088 0.487417 0.0686375
59 1 0.147311 0.560384 0.106707
71 1 0.47831 0.60351 0
29 1 0.894975 0.35351 0
30 1 0.640649 0.421172 0.034054
32 1 0.895088 0.487417 0.0686375
87 1 0.647311 0.560384 0.106707
99 1 0.97831 0.60351 0
57 1 0.394975 0.85351 0
58 1 0.140649 0.921172 0.034054
60 1 0.395088 0.987417 0.0686375
72 1 0.232636 0.671172 0.034054
73 1 0.478197 0.737417 0.0686375
74 1 0.225974 0.810384 0.106707
85 1 0.894975 0.85351 0
86 1 0.640649 0.921172 0.034054
88 1 0.895088 0.987417 0.0686375
100 1 0.732636 0.671172 0.034054
101 1 0.978197 0.737417 0.0686375
102 1 0.725974 0.810384 0.106707
5 1 0.396718 0.134179 0.143722
6 1 0.146437 0.206866 0.179761
7 1 0.396146 0.279723 0.215023
20 1 0.477139 0.0297229 0.215023
33 1 0.896718 0.134179 0.143722
34 1 0.646437 0.206866 0.179761
35 1 0.896146 0.279723 0.215023
48 1 0.977139 0.0297229 0.215023
19 1 0.476567 0.384179 0.143722
21 1 0.226848 0.456866 0.179761
61 1 0.396718 0.634179 0.143722
76 1 0.477139 0.529723 0.215023
47 1 0.976567 0.384179 0.143722
49 1 0.726848 0.456866 0.179761
89 1 0.896718 0.634179 0.143722
104 1 0.977139 0.529723 0.215023
62 1 0.146437 0.706866 0.179761
63 1 0.396146 0.779723 0.215023
75 1 0.476567 0.884179 0.143722
77 1 0.226848 0.956866 0.179761
90 1 0.646437 0.706866 0.179761
91 1 0.896146 0.779723 0.215023
103 1 0.976567 0.884179 0.143722
105 1 0.726848 0.956866 0.179761
22 1 0.227139 0.152369 0.257512
23 1 0.476848 0.225226 0.292775
24 1 0.226567 0.297913 0.328814
67 1 0.146718 0.047913 0.328814
50 1 0.727139 0.152369 0.257512
51 1 0.976848 0.225226 0.292775
52 1 0.726567 0.297913 0.328814
95 1 0.646718 0.047913 0.328814
8 1 0.146146 0.402369 0.257512
9 1 0.396437 0.475226 0.292775
11 1 0.146718 0.547913 0.328814
78 1 0.227139 0.652369 0.257512
36 1 0.646146 0.402369 0.257512
37 1 0.896437 0.475226 0.292775
39 1 0.646718 0.547913 0.328814
106 1 0.727139 0.652369 0.257512
64 1 0.146146 0.902369 0.257512
65 1 0.396437 0.975226 0.292775
79 1 0.476848 0.725226 0.292775
80 1 0.226567 0.797913 0.328814
92 1 0.646146 0.902369 0.257512
93 1 0.896437 0.975226 0.292775
107 1 0.976848 0.725226 0.292775
108 1 0.726567 0.797913 0.328814
10 1 0.397311 0.121707 0.365828
12 1 0.145088 0.194673 0.403898
13 1 0.390649 0.260918 0.438481
84 1 0.482636 0.0109185 0.438482
38 1 0.897311 0.121707 0.365828
40 1 0.645088 0.194673 0.403898
41 1 0.890649 0.260918 0.438481
112 1 0.982636 0.0109185 0.438482
25 1 0.475974 0.371707 0.365828
26 1 0.228197 0.444674 0.403898
28 1 0.482636 0.510918 0.438482
66 1 0.397311 0.621707 0.365828
53 1 0.975974 0.371707 0.365828
54 1 0.728197 0.444674 0.403898
56 1 0.982636 0.510918 0.438482
94 1 0.897311 0.621707 0.365828
68 1 0.145088 0.694673 0.403898
69 1 0.390649 0.760918 0.438481
81 1 0.475974 0.871707 0.365828
82 1 0.228197 0.944674 0.403898
96 1 0.645088 0.694673 0.403898
97 1 0.890649 0.760918 0.438481
109 1 0.975974 0.871707 0.365828
110 1 0.728197 0.944674 0.403898
14 1 0.144975 0.32858 0.472535
27 1 0.22831 0.07858 0.472535
42 1 0.644975 0.32858 0.472535
55 1 0.72831 0.07858 0.472535
83 1 0.22831 0.57858 0.472535
111 1 0.72831 0.57858 0.472535
70 1 0.144975 0.82858 0.472535
98 1 0.644975 0.82858 0.472535
