LAMMPS (29 Sep 2021 - Update 3)
# variables
variable        lattConst equal 2.9331958294
variable        c_over_a  equal 1.5853227519252249
variable        _ydisp equal 1

variable        a11 equal sqrt(3)*${lattConst}
variable        a11 equal sqrt(3)*2.9331958294
variable        a22 equal sqrt(1+${c_over_a}^2)*${lattConst}
variable        a22 equal sqrt(1+1.58532275192522^2)*${lattConst}
variable        a22 equal sqrt(1+1.58532275192522^2)*2.9331958294
variable        a33 equal sqrt(1+4*${c_over_a}^2)*${lattConst}*1.6536270632906969+3
variable        a33 equal sqrt(1+4*1.58532275192522^2)*${lattConst}*1.6536270632906969+3
variable        a33 equal sqrt(1+4*1.58532275192522^2)*2.9331958294*1.6536270632906969+3

variable        top equal 0.85
variable        upperBound equal 0.79
variable        lowerBound equal 0.03
variable        half equal 0.42
variable        vacHigh equal ${a33}*1.3
variable        vacHigh equal 19.1256999969*1.3


# ------------------- Simulation System -----------------------
units           metal
atom_style      atomic
boundary        p p p
neighbor        0.3 bin

# ------------------- Lattice Definition -----------------------
# always displace towards y direction
# will have 3 groups, upper, lower and boundary, boundary will be fixed to avoid the
# surface interaction
# don't change the following position. It contains 28 atoms with each layer 1 atom and 2 A vaccum layer.
# in the region part, the x and y can be replicated, but don't do z
print           "a1 ${a11} 0.0 0.0"
a1 5.08044420506993 0.0 0.0
print           "a2 0 ${a22} 0.0"
a2 0 5.49788278890373 0.0
print           "a3 0.0 0.0 ${a33}"
a3 0.0 0.0 19.1256999969

lattice         custom 1.00                 a1 ${a11}   0.0     0.0                 a2 0.0      ${a22}  0.0                 a3 0.0      0.0     ${a33}                 basis 0.789950073  0.707019985  0.000000000 basis 0.289950013  0.849340022  0.064853005                 basis 0.289950013  0.133980006  0.194575295 basis 0.789950073  0.991659939  0.129722282                 basis 0.789950073  0.276300013  0.259428293 basis 0.289950013  0.418619990  0.324281305                 basis 0.789950073  0.560930014  0.389150590 basis 0.289950013  0.703249991  0.454003602                 basis 0.789950073  0.845570028  0.518856585 basis 0.789950073  0.130209997  0.648578942                 basis 0.289950013  0.987890065  0.583709598 basis 0.289950013  0.272529989  0.713431895                 basis 0.789950073  0.414850026  0.778284907 basis 0.289950013  0.557160020  0.843137920                 basis 0.956619978  0.207020000  0.000000000 basis 0.456620008  0.349339992  0.064853005                 basis 0.956619978  0.491659999  0.129722282 basis 0.456620008  0.633979976  0.194575295                 basis 0.956619978  0.776299953  0.259428293 basis 0.956619978  0.060929999  0.389150590                 basis 0.456620008  0.918619990  0.324281305 basis 0.456620008  0.203250006  0.454003602                 basis 0.956619978  0.345569998  0.518856585 basis 0.456620008  0.487890005  0.583709598                 basis 0.956619978  0.630209982  0.648578942 basis 0.456620008  0.772530079  0.713431895                 basis 0.456620008  0.057160001  0.843137920 basis 0.956619978  0.914849997  0.778284907
lattice         custom 1.00                 a1 5.08044420506993   0.0     0.0                 a2 0.0      ${a22}  0.0                 a3 0.0      0.0     ${a33}                 basis 0.789950073  0.707019985  0.000000000 basis 0.289950013  0.849340022  0.064853005                 basis 0.289950013  0.133980006  0.194575295 basis 0.789950073  0.991659939  0.129722282                 basis 0.789950073  0.276300013  0.259428293 basis 0.289950013  0.418619990  0.324281305                 basis 0.789950073  0.560930014  0.389150590 basis 0.289950013  0.703249991  0.454003602                 basis 0.789950073  0.845570028  0.518856585 basis 0.789950073  0.130209997  0.648578942                 basis 0.289950013  0.987890065  0.583709598 basis 0.289950013  0.272529989  0.713431895                 basis 0.789950073  0.414850026  0.778284907 basis 0.289950013  0.557160020  0.843137920                 basis 0.956619978  0.207020000  0.000000000 basis 0.456620008  0.349339992  0.064853005                 basis 0.956619978  0.491659999  0.129722282 basis 0.456620008  0.633979976  0.194575295                 basis 0.956619978  0.776299953  0.259428293 basis 0.956619978  0.060929999  0.389150590                 basis 0.456620008  0.918619990  0.324281305 basis 0.456620008  0.203250006  0.454003602                 basis 0.956619978  0.345569998  0.518856585 basis 0.456620008  0.487890005  0.583709598                 basis 0.956619978  0.630209982  0.648578942 basis 0.456620008  0.772530079  0.713431895                 basis 0.456620008  0.057160001  0.843137920 basis 0.956619978  0.914849997  0.778284907
lattice         custom 1.00                 a1 5.08044420506993   0.0     0.0                 a2 0.0      5.49788278890373  0.0                 a3 0.0      0.0     ${a33}                 basis 0.789950073  0.707019985  0.000000000 basis 0.289950013  0.849340022  0.064853005                 basis 0.289950013  0.133980006  0.194575295 basis 0.789950073  0.991659939  0.129722282                 basis 0.789950073  0.276300013  0.259428293 basis 0.289950013  0.418619990  0.324281305                 basis 0.789950073  0.560930014  0.389150590 basis 0.289950013  0.703249991  0.454003602                 basis 0.789950073  0.845570028  0.518856585 basis 0.789950073  0.130209997  0.648578942                 basis 0.289950013  0.987890065  0.583709598 basis 0.289950013  0.272529989  0.713431895                 basis 0.789950073  0.414850026  0.778284907 basis 0.289950013  0.557160020  0.843137920                 basis 0.956619978  0.207020000  0.000000000 basis 0.456620008  0.349339992  0.064853005                 basis 0.956619978  0.491659999  0.129722282 basis 0.456620008  0.633979976  0.194575295                 basis 0.956619978  0.776299953  0.259428293 basis 0.956619978  0.060929999  0.389150590                 basis 0.456620008  0.918619990  0.324281305 basis 0.456620008  0.203250006  0.454003602                 basis 0.956619978  0.345569998  0.518856585 basis 0.456620008  0.487890005  0.583709598                 basis 0.956619978  0.630209982  0.648578942 basis 0.456620008  0.772530079  0.713431895                 basis 0.456620008  0.057160001  0.843137920 basis 0.956619978  0.914849997  0.778284907
lattice         custom 1.00                 a1 5.08044420506993   0.0     0.0                 a2 0.0      5.49788278890373  0.0                 a3 0.0      0.0     19.1256999969                 basis 0.789950073  0.707019985  0.000000000 basis 0.289950013  0.849340022  0.064853005                 basis 0.289950013  0.133980006  0.194575295 basis 0.789950073  0.991659939  0.129722282                 basis 0.789950073  0.276300013  0.259428293 basis 0.289950013  0.418619990  0.324281305                 basis 0.789950073  0.560930014  0.389150590 basis 0.289950013  0.703249991  0.454003602                 basis 0.789950073  0.845570028  0.518856585 basis 0.789950073  0.130209997  0.648578942                 basis 0.289950013  0.987890065  0.583709598 basis 0.289950013  0.272529989  0.713431895                 basis 0.789950073  0.414850026  0.778284907 basis 0.289950013  0.557160020  0.843137920                 basis 0.956619978  0.207020000  0.000000000 basis 0.456620008  0.349339992  0.064853005                 basis 0.956619978  0.491659999  0.129722282 basis 0.456620008  0.633979976  0.194575295                 basis 0.956619978  0.776299953  0.259428293 basis 0.956619978  0.060929999  0.389150590                 basis 0.456620008  0.918619990  0.324281305 basis 0.456620008  0.203250006  0.454003602                 basis 0.956619978  0.345569998  0.518856585 basis 0.456620008  0.487890005  0.583709598                 basis 0.956619978  0.630209982  0.648578942 basis 0.456620008  0.772530079  0.713431895                 basis 0.456620008  0.057160001  0.843137920 basis 0.956619978  0.914849997  0.778284907
Lattice spacing in x,y,z = 5.0804442 5.4978828 19.125700


# lattice         hcp 1 orient y 0 2 -1 orient x 1 0 0 orient z 0 1 2


region          atoms block 0 2 0 2 0 1 units lattice # the region of atoms
create_box      5 atoms # 3 types of atoms
Created orthogonal box = (0.0000000 0.0000000 0.0000000) to (10.160888 10.995766 19.125700)
  1 by 1 by 1 MPI processor grid
region          upper block INF INF INF INF ${half} ${top} units lattice
region          upper block INF INF INF INF 0.42 ${top} units lattice
region          upper block INF INF INF INF 0.42 0.85 units lattice
region          upperbound block INF INF INF INF ${upperBound} INF units lattice
region          upperbound block INF INF INF INF 0.79 INF units lattice
region          lowerbound block INF INF INF INF INF ${lowerBound} units lattice
region          lowerbound block INF INF INF INF INF 0.03 units lattice

create_atoms    1 region atoms
Created 112 atoms
  using lattice units in orthogonal box = (0.0000000 0.0000000 0.0000000) to (10.160888 10.995766 19.125700)
  create_atoms CPU = 0.000 seconds

change_box      all z delta 0 15 units box # add vacuum layer 15 A
Changing box ...
  orthogonal box = (0.0000000 0.0000000 0.0000000) to (10.160888 10.995766 34.125700)

group           atoms region atoms
112 atoms in group atoms
group           upper region upper
56 atoms in group upper
group           lower subtract atoms upper
56 atoms in group lower
group           mobile union upper lower
112 atoms in group mobile
group           upperbound region upperbound
8 atoms in group upperbound
group           lowerbound region lowerbound
8 atoms in group lowerbound
group           boundary union upperbound lowerbound
16 atoms in group boundary

set             group lower type 1
Setting atom values ...
  56 settings made for type
set             group upper type 1
Setting atom values ...
  56 settings made for type
set             group boundary type 1
Setting atom values ...
  16 settings made for type

# ------------------- Potential Setting -----------------------
# pair_style      eam/fs
# pair_coeff      * * Zr_3.eam.fs Zr Zr Zr

mass            1 47.87
mass            2 26.98
mass            3 95.94
mass            4 52.00
mass            5 55.85


pair_style      deepmd ../Ti5_big_i2.pb
Summary of lammps deepmd module ...
  >>> Info of deepmd-kit:
  installed to:       /root/deepmd-kit/c_build
  source:             v1.3.2-1132-g0a779ba
  source branch:       devel
  source commit:      0a779ba
  source commit at:   2022-09-06 19:30:35 +0800
  surpport model ver.:1.1 
  build float prec:   double
  build variant:      cuda
  build with tf inc:  /root/soft/tf/include;/root/soft/tf/include
  build with tf lib:  /root/soft/tf/lib/libtensorflow_cc.so;/root/soft/tf/lib/libtensorflow_framework.so
  set tf intra_op_parallelism_threads: 0
  set tf inter_op_parallelism_threads: 0
  >>> Info of lammps module:
  use deepmd-kit at:  /root/deepmd-kit/c_build
  source:             v1.3.2-1132-g0a779ba
  source branch:      devel
  source commit:      0a779ba
  source commit at:   2022-09-06 19:30:35 +0800
  build float prec:   double
  build with tf inc:  /root/soft/tf/include;/root/soft/tf/include
  build with tf lib:  /root/soft/tf/lib/libtensorflow_cc.so;/root/soft/tf/lib/libtensorflow_framework.so
pair_coeff      * *

# write_data      data.init
# jump            in.blank

# calculate the E0 of current relaxed perfect configuration
variable        A equal lx*ly*1E-20
variable        ev2mJ equal 1.60217657E-16

fix             1 boundary setforce 0. 0. 0.
min_style       cg
minimize        1E-10 1E-10 100000 100000

CITE-CITE-CITE-CITE-CITE-CITE-CITE-CITE-CITE-CITE-CITE-CITE-CITE

Your simulation uses code contributions which should be cited:

- USER-DEEPMD package:

@article{Wang_ComputPhysCommun_2018_v228_p178,
  author = {Wang, Han and Zhang, Linfeng and Han, Jiequn and E, Weinan},
  doi = {10.1016/j.cpc.2018.03.016},
  url = {https://doi.org/10.1016/j.cpc.2018.03.016},
  year = 2018,
  month = {jul},
  publisher = {Elsevier {BV}},
  volume = 228,
  journal = {Comput. Phys. Commun.},
  title = {{DeePMD-kit: A deep learning package for many-body potential energy representation and molecular dynamics}},
  pages = {178--184}
}

CITE-CITE-CITE-CITE-CITE-CITE-CITE-CITE-CITE-CITE-CITE-CITE-CITE

WARNING: Using 'neigh_modify every 1 delay 0 check yes' setting during minimization (../min.cpp:188)
Neighbor list info ...
  update every 1 steps, delay 0 steps, check yes
  max neighbors/atom: 2000, page size: 100000
  master list distance cutoff = 7.3
  ghost atom cutoff = 7.3
  binsize = 3.65, bins = 3 4 10
  1 neighbor lists, perpetual/occasional/extra = 1 0 0
  (1) pair deepmd, perpetual
      attributes: full, newton on
      pair build: full/bin/atomonly
      stencil: full/bin/3d
      bin: standard
Per MPI rank memory allocation (min/avg/max) = 4.213 | 4.213 | 4.213 Mbytes
Step Temp E_pair E_mol TotEng Press 
       0            0   -847.82384            0   -847.82384   -14861.557 
      14            0   -848.81648            0   -848.81648   -14566.826 
Loop time of 0.26314 on 1 procs for 14 steps with 112 atoms

108.1% CPU use with 1 MPI tasks x no OpenMP threads

Minimization stats:
  Stopping criterion = energy tolerance
  Energy initial, next-to-last, final = 
     -847.823840757418  -848.816478886807  -848.816478964764
  Force two-norm initial, final = 2.9370766 0.00051351465
  Force max component initial, final = 0.63861232 6.1994686e-05
  Final line search alpha, max atom move = 1.0000000 6.1994686e-05
  Iterations, force evaluations = 14 28

MPI task timing breakdown:
Section |  min time  |  avg time  |  max time  |%varavg| %total
---------------------------------------------------------------
Pair    | 0.26219    | 0.26219    | 0.26219    |   0.0 | 99.64
Neigh   | 0.00042272 | 0.00042272 | 0.00042272 |   0.0 |  0.16
Comm    | 0.00018024 | 0.00018024 | 0.00018024 |   0.0 |  0.07
Output  | 0          | 0          | 0          |   0.0 |  0.00
Modify  | 3.0041e-05 | 3.0041e-05 | 3.0041e-05 |   0.0 |  0.01
Other   |            | 0.0003209  |            |       |  0.12

Nlocal:        112.000 ave         112 max         112 min
Histogram: 1 0 0 0 0 0 0 0 0 0
Nghost:        773.000 ave         773 max         773 min
Histogram: 1 0 0 0 0 0 0 0 0 0
Neighs:         0.00000 ave           0 max           0 min
Histogram: 1 0 0 0 0 0 0 0 0 0
FullNghs:      8608.00 ave        8608 max        8608 min
Histogram: 1 0 0 0 0 0 0 0 0 0

Total # of neighbors = 8608
Ave neighs/atom = 76.857143
Neighbor list builds = 1
Dangerous builds = 0
run             0
Per MPI rank memory allocation (min/avg/max) = 3.088 | 3.088 | 3.088 Mbytes
Step Temp E_pair E_mol TotEng Press 
      14            0   -848.81648            0   -848.81648   -14566.826 
Loop time of 1.45435e-05 on 1 procs for 0 steps with 112 atoms

75.6% CPU use with 1 MPI tasks x no OpenMP threads

MPI task timing breakdown:
Section |  min time  |  avg time  |  max time  |%varavg| %total
---------------------------------------------------------------
Pair    | 0          | 0          | 0          |   0.0 |  0.00
Neigh   | 0          | 0          | 0          |   0.0 |  0.00
Comm    | 0          | 0          | 0          |   0.0 |  0.00
Output  | 0          | 0          | 0          |   0.0 |  0.00
Modify  | 0          | 0          | 0          |   0.0 |  0.00
Other   |            | 1.454e-05  |            |       |100.00

Nlocal:        112.000 ave         112 max         112 min
Histogram: 1 0 0 0 0 0 0 0 0 0
Nghost:        773.000 ave         773 max         773 min
Histogram: 1 0 0 0 0 0 0 0 0 0
Neighs:         0.00000 ave           0 max           0 min
Histogram: 1 0 0 0 0 0 0 0 0 0
FullNghs:      8672.00 ave        8672 max        8672 min
Histogram: 1 0 0 0 0 0 0 0 0 0

Total # of neighbors = 8672
Ave neighs/atom = 77.428571
Neighbor list builds = 0
Dangerous builds = 0
unfix           1
write_dump      all atom dump.0

variable        E0_ equal pe
variable        E0 equal ${E0_}
variable        E0 equal -848.816478964764
variable        SFE equal (pe-${E0})/$A*${ev2mJ}
variable        SFE equal (pe--848.816478964764)/$A*${ev2mJ}
variable        SFE equal (pe--848.816478964764)/1.11726747020159e-18*${ev2mJ}
variable        SFE equal (pe--848.816478964764)/1.11726747020159e-18*1.60217657e-16

print           "0,${SFE}" file gsfe
0,-4.89085360237242e-11

# create a loop to calculate the following displacement
variable        steps equal 30
variable        ydisp equal ${_ydisp}/${steps}
variable        ydisp equal 1/${steps}
variable        ydisp equal 1/30

# start loop

variable        i loop ${steps}
variable        i loop 30
label           loop

variable        rdisp equal $i/${steps} # the relative displacement
variable        rdisp equal 1/${steps} 
variable        rdisp equal 1/30 

displace_atoms  upper move 0 ${ydisp} 0 units lattice
displace_atoms  upper move 0 0.0333333333333333 0 units lattice
Displacing atoms ...

fix             1 mobile setforce 0. 0. NULL # only allowed to relax in Z direction
fix             2 boundary setforce 0. 0. 0. # boundary is fixed to avoid the surface effect

min_style       cg
minimize        1E-10 1E-10 100000 100000
WARNING: Using 'neigh_modify every 1 delay 0 check yes' setting during minimization (../min.cpp:188)
Per MPI rank memory allocation (min/avg/max) = 4.213 | 4.213 | 4.213 Mbytes
Step Temp E_pair E_mol TotEng Press 
      14            0    -848.4244            0    -848.4244   -14588.866 
      21            0   -848.44192            0   -848.44192   -14593.513 
Loop time of 0.135059 on 1 procs for 7 steps with 112 atoms

113.7% CPU use with 1 MPI tasks x no OpenMP threads

Minimization stats:
  Stopping criterion = energy tolerance
  Energy initial, next-to-last, final = 
     -848.424401387405  -848.441915627985  -848.441915632881
  Force two-norm initial, final = 0.54159280 6.8036477e-06
  Force max component initial, final = 0.11297669 1.4627408e-06
  Final line search alpha, max atom move = 1.0000000 1.4627408e-06
  Iterations, force evaluations = 7 14

MPI task timing breakdown:
Section |  min time  |  avg time  |  max time  |%varavg| %total
---------------------------------------------------------------
Pair    | 0.13481    | 0.13481    | 0.13481    |   0.0 | 99.82
Neigh   | 0          | 0          | 0          |   0.0 |  0.00
Comm    | 7.2718e-05 | 7.2718e-05 | 7.2718e-05 |   0.0 |  0.05
Output  | 0          | 0          | 0          |   0.0 |  0.00
Modify  | 2.2411e-05 | 2.2411e-05 | 2.2411e-05 |   0.0 |  0.02
Other   |            | 0.0001514  |            |       |  0.11

Nlocal:        112.000 ave         112 max         112 min
Histogram: 1 0 0 0 0 0 0 0 0 0
Nghost:        778.000 ave         778 max         778 min
Histogram: 1 0 0 0 0 0 0 0 0 0
Neighs:         0.00000 ave           0 max           0 min
Histogram: 1 0 0 0 0 0 0 0 0 0
FullNghs:      8592.00 ave        8592 max        8592 min
Histogram: 1 0 0 0 0 0 0 0 0 0

Total # of neighbors = 8592
Ave neighs/atom = 76.714286
Neighbor list builds = 0
Dangerous builds = 0

write_dump      all atom dump.${i}
write_dump      all atom dump.1

print           "${rdisp},${SFE}" append gsfe
0.0333333333333333,53.7128852606773

unfix           1
unfix           2

next            i
jump            SELF loop

variable        rdisp equal $i/${steps} # the relative displacement
variable        rdisp equal 2/${steps} 
variable        rdisp equal 2/30 

displace_atoms  upper move 0 ${ydisp} 0 units lattice
displace_atoms  upper move 0 0.0333333333333333 0 units lattice
Displacing atoms ...

fix             1 mobile setforce 0. 0. NULL # only allowed to relax in Z direction
fix             2 boundary setforce 0. 0. 0. # boundary is fixed to avoid the surface effect

min_style       cg
minimize        1E-10 1E-10 100000 100000
WARNING: Using 'neigh_modify every 1 delay 0 check yes' setting during minimization (../min.cpp:188)
Per MPI rank memory allocation (min/avg/max) = 4.213 | 4.213 | 4.213 Mbytes
Step Temp E_pair E_mol TotEng Press 
      21            0    -847.5561            0    -847.5561   -14225.219 
      29            0   -847.63882            0   -847.63882   -14173.615 
Loop time of 0.153031 on 1 procs for 8 steps with 112 atoms

114.8% CPU use with 1 MPI tasks x no OpenMP threads

Minimization stats:
  Stopping criterion = energy tolerance
  Energy initial, next-to-last, final = 
     -847.556099563307  -847.638823562209  -847.638823605192
  Force two-norm initial, final = 1.1438549 0.00019946049
  Force max component initial, final = 0.24956447 3.0144595e-05
  Final line search alpha, max atom move = 1.0000000 3.0144595e-05
  Iterations, force evaluations = 8 16

MPI task timing breakdown:
Section |  min time  |  avg time  |  max time  |%varavg| %total
---------------------------------------------------------------
Pair    | 0.15274    | 0.15274    | 0.15274    |   0.0 | 99.81
Neigh   | 0          | 0          | 0          |   0.0 |  0.00
Comm    | 8.5592e-05 | 8.5592e-05 | 8.5592e-05 |   0.0 |  0.06
Output  | 0          | 0          | 0          |   0.0 |  0.00
Modify  | 2.5272e-05 | 2.5272e-05 | 2.5272e-05 |   0.0 |  0.02
Other   |            | 0.0001829  |            |       |  0.12

Nlocal:        112.000 ave         112 max         112 min
Histogram: 1 0 0 0 0 0 0 0 0 0
Nghost:        773.000 ave         773 max         773 min
Histogram: 1 0 0 0 0 0 0 0 0 0
Neighs:         0.00000 ave           0 max           0 min
Histogram: 1 0 0 0 0 0 0 0 0 0
FullNghs:      8560.00 ave        8560 max        8560 min
Histogram: 1 0 0 0 0 0 0 0 0 0

Total # of neighbors = 8560
Ave neighs/atom = 76.428571
Neighbor list builds = 0
Dangerous builds = 0

write_dump      all atom dump.${i}
write_dump      all atom dump.2

print           "${rdisp},${SFE}" append gsfe
0.0666666666666667,168.877361506022

unfix           1
unfix           2

next            i
jump            SELF loop

variable        rdisp equal $i/${steps} # the relative displacement
variable        rdisp equal 3/${steps} 
variable        rdisp equal 3/30 

displace_atoms  upper move 0 ${ydisp} 0 units lattice
displace_atoms  upper move 0 0.0333333333333333 0 units lattice
Displacing atoms ...

fix             1 mobile setforce 0. 0. NULL # only allowed to relax in Z direction
fix             2 boundary setforce 0. 0. 0. # boundary is fixed to avoid the surface effect

min_style       cg
minimize        1E-10 1E-10 100000 100000
WARNING: Using 'neigh_modify every 1 delay 0 check yes' setting during minimization (../min.cpp:188)
Per MPI rank memory allocation (min/avg/max) = 4.213 | 4.213 | 4.213 Mbytes
Step Temp E_pair E_mol TotEng Press 
      29            0   -846.61001            0   -846.61001   -13301.041 
      38            0     -846.724            0     -846.724   -12892.701 
Loop time of 0.17104 on 1 procs for 9 steps with 112 atoms

113.1% CPU use with 1 MPI tasks x no OpenMP threads

Minimization stats:
  Stopping criterion = energy tolerance
  Energy initial, next-to-last, final = 
     -846.610007087767  -846.724003809273  -846.724003865059
  Force two-norm initial, final = 1.2833492 0.00029796702
  Force max component initial, final = 0.29509097 5.4312991e-05
  Final line search alpha, max atom move = 1.0000000 5.4312991e-05
  Iterations, force evaluations = 9 18

MPI task timing breakdown:
Section |  min time  |  avg time  |  max time  |%varavg| %total
---------------------------------------------------------------
Pair    | 0.17072    | 0.17072    | 0.17072    |   0.0 | 99.81
Neigh   | 0          | 0          | 0          |   0.0 |  0.00
Comm    | 9.9182e-05 | 9.9182e-05 | 9.9182e-05 |   0.0 |  0.06
Output  | 0          | 0          | 0          |   0.0 |  0.00
Modify  | 2.6703e-05 | 2.6703e-05 | 2.6703e-05 |   0.0 |  0.02
Other   |            | 0.0001965  |            |       |  0.11

Nlocal:        112.000 ave         112 max         112 min
Histogram: 1 0 0 0 0 0 0 0 0 0
Nghost:        773.000 ave         773 max         773 min
Histogram: 1 0 0 0 0 0 0 0 0 0
Neighs:         0.00000 ave           0 max           0 min
Histogram: 1 0 0 0 0 0 0 0 0 0
FullNghs:      8528.00 ave        8528 max        8528 min
Histogram: 1 0 0 0 0 0 0 0 0 0

Total # of neighbors = 8528
Ave neighs/atom = 76.142857
Neighbor list builds = 0
Dangerous builds = 0

write_dump      all atom dump.${i}
write_dump      all atom dump.3

print           "${rdisp},${SFE}" append gsfe
0.1,300.063741894363

unfix           1
unfix           2

next            i
jump            SELF loop

variable        rdisp equal $i/${steps} # the relative displacement
variable        rdisp equal 4/${steps} 
variable        rdisp equal 4/30 

displace_atoms  upper move 0 ${ydisp} 0 units lattice
displace_atoms  upper move 0 0.0333333333333333 0 units lattice
Displacing atoms ...

fix             1 mobile setforce 0. 0. NULL # only allowed to relax in Z direction
fix             2 boundary setforce 0. 0. 0. # boundary is fixed to avoid the surface effect

min_style       cg
minimize        1E-10 1E-10 100000 100000
WARNING: Using 'neigh_modify every 1 delay 0 check yes' setting during minimization (../min.cpp:188)
Per MPI rank memory allocation (min/avg/max) = 4.213 | 4.213 | 4.213 Mbytes
Step Temp E_pair E_mol TotEng Press 
      38            0   -845.63264            0   -845.63264   -12299.512 
      47            0   -845.69761            0   -845.69761   -12021.184 
Loop time of 0.172359 on 1 procs for 9 steps with 112 atoms

114.4% CPU use with 1 MPI tasks x no OpenMP threads

Minimization stats:
  Stopping criterion = energy tolerance
  Energy initial, next-to-last, final = 
     -845.632635281738  -845.697605654641  -845.697605681595
  Force two-norm initial, final = 0.97831738 0.00018290060
  Force max component initial, final = 0.23026604 2.9758624e-05
  Final line search alpha, max atom move = 1.0000000 2.9758624e-05
  Iterations, force evaluations = 9 18

MPI task timing breakdown:
Section |  min time  |  avg time  |  max time  |%varavg| %total
---------------------------------------------------------------
Pair    | 0.17199    | 0.17199    | 0.17199    |   0.0 | 99.79
Neigh   | 0          | 0          | 0          |   0.0 |  0.00
Comm    | 0.00011063 | 0.00011063 | 0.00011063 |   0.0 |  0.06
Output  | 0          | 0          | 0          |   0.0 |  0.00
Modify  | 3.1471e-05 | 3.1471e-05 | 3.1471e-05 |   0.0 |  0.02
Other   |            | 0.0002236  |            |       |  0.13

Nlocal:        112.000 ave         112 max         112 min
Histogram: 1 0 0 0 0 0 0 0 0 0
Nghost:        774.000 ave         774 max         774 min
Histogram: 1 0 0 0 0 0 0 0 0 0
Neighs:         0.00000 ave           0 max           0 min
Histogram: 1 0 0 0 0 0 0 0 0 0
FullNghs:      8576.00 ave        8576 max        8576 min
Histogram: 1 0 0 0 0 0 0 0 0 0

Total # of neighbors = 8576
Ave neighs/atom = 76.571429
Neighbor list builds = 0
Dangerous builds = 0

write_dump      all atom dump.${i}
write_dump      all atom dump.4

print           "${rdisp},${SFE}" append gsfe
0.133333333333333,447.250621034374

unfix           1
unfix           2

next            i
jump            SELF loop

variable        rdisp equal $i/${steps} # the relative displacement
variable        rdisp equal 5/${steps} 
variable        rdisp equal 5/30 

displace_atoms  upper move 0 ${ydisp} 0 units lattice
displace_atoms  upper move 0 0.0333333333333333 0 units lattice
Displacing atoms ...

fix             1 mobile setforce 0. 0. NULL # only allowed to relax in Z direction
fix             2 boundary setforce 0. 0. 0. # boundary is fixed to avoid the surface effect

min_style       cg
minimize        1E-10 1E-10 100000 100000
WARNING: Using 'neigh_modify every 1 delay 0 check yes' setting during minimization (../min.cpp:188)
Per MPI rank memory allocation (min/avg/max) = 4.213 | 4.213 | 4.213 Mbytes
Step Temp E_pair E_mol TotEng Press 
      47            0   -844.43285            0   -844.43285   -11506.284 
      55            0   -844.49153            0   -844.49153   -10944.791 
Loop time of 0.153263 on 1 procs for 8 steps with 112 atoms

116.6% CPU use with 1 MPI tasks x no OpenMP threads

Minimization stats:
  Stopping criterion = energy tolerance
  Energy initial, next-to-last, final = 
     -844.432848497809  -844.491531514204  -844.491531568709
  Force two-norm initial, final = 0.84389388 0.00054533557
  Force max component initial, final = 0.19939093 7.6867483e-05
  Final line search alpha, max atom move = 1.0000000 7.6867483e-05
  Iterations, force evaluations = 8 16

MPI task timing breakdown:
Section |  min time  |  avg time  |  max time  |%varavg| %total
---------------------------------------------------------------
Pair    | 0.15295    | 0.15295    | 0.15295    |   0.0 | 99.79
Neigh   | 0          | 0          | 0          |   0.0 |  0.00
Comm    | 9.6321e-05 | 9.6321e-05 | 9.6321e-05 |   0.0 |  0.06
Output  | 0          | 0          | 0          |   0.0 |  0.00
Modify  | 2.3603e-05 | 2.3603e-05 | 2.3603e-05 |   0.0 |  0.02
Other   |            | 0.0001981  |            |       |  0.13

Nlocal:        112.000 ave         112 max         112 min
Histogram: 1 0 0 0 0 0 0 0 0 0
Nghost:        774.000 ave         774 max         774 min
Histogram: 1 0 0 0 0 0 0 0 0 0
Neighs:         0.00000 ave           0 max           0 min
Histogram: 1 0 0 0 0 0 0 0 0 0
FullNghs:      8528.00 ave        8528 max        8528 min
Histogram: 1 0 0 0 0 0 0 0 0 0

Total # of neighbors = 8528
Ave neighs/atom = 76.142857
Neighbor list builds = 0
Dangerous builds = 0

write_dump      all atom dump.${i}
write_dump      all atom dump.5

print           "${rdisp},${SFE}" append gsfe
0.166666666666667,620.203269964639

unfix           1
unfix           2

next            i
jump            SELF loop

variable        rdisp equal $i/${steps} # the relative displacement
variable        rdisp equal 6/${steps} 
variable        rdisp equal 6/30 

displace_atoms  upper move 0 ${ydisp} 0 units lattice
displace_atoms  upper move 0 0.0333333333333333 0 units lattice
Displacing atoms ...

fix             1 mobile setforce 0. 0. NULL # only allowed to relax in Z direction
fix             2 boundary setforce 0. 0. 0. # boundary is fixed to avoid the surface effect

min_style       cg
minimize        1E-10 1E-10 100000 100000
WARNING: Using 'neigh_modify every 1 delay 0 check yes' setting during minimization (../min.cpp:188)
Per MPI rank memory allocation (min/avg/max) = 4.213 | 4.213 | 4.213 Mbytes
Step Temp E_pair E_mol TotEng Press 
      55            0    -843.2033            0    -843.2033   -10720.471 
      63            0   -843.24187            0   -843.24187   -10269.945 
Loop time of 0.153899 on 1 procs for 8 steps with 112 atoms

115.0% CPU use with 1 MPI tasks x no OpenMP threads

Minimization stats:
  Stopping criterion = energy tolerance
  Energy initial, next-to-last, final = 
      -843.20330484485  -843.241869204474  -843.241869282394
  Force two-norm initial, final = 0.68835149 0.00054060308
  Force max component initial, final = 0.16328214 8.5480223e-05
  Final line search alpha, max atom move = 1.0000000 8.5480223e-05
  Iterations, force evaluations = 8 16

MPI task timing breakdown:
Section |  min time  |  avg time  |  max time  |%varavg| %total
---------------------------------------------------------------
Pair    | 0.15358    | 0.15358    | 0.15358    |   0.0 | 99.79
Neigh   | 0          | 0          | 0          |   0.0 |  0.00
Comm    | 8.7023e-05 | 8.7023e-05 | 8.7023e-05 |   0.0 |  0.06
Output  | 0          | 0          | 0          |   0.0 |  0.00
Modify  | 3.3617e-05 | 3.3617e-05 | 3.3617e-05 |   0.0 |  0.02
Other   |            | 0.000196   |            |       |  0.13

Nlocal:        112.000 ave         112 max         112 min
Histogram: 1 0 0 0 0 0 0 0 0 0
Nghost:        818.000 ave         818 max         818 min
Histogram: 1 0 0 0 0 0 0 0 0 0
Neighs:         0.00000 ave           0 max           0 min
Histogram: 1 0 0 0 0 0 0 0 0 0
FullNghs:      8496.00 ave        8496 max        8496 min
Histogram: 1 0 0 0 0 0 0 0 0 0

Total # of neighbors = 8496
Ave neighs/atom = 75.857143
Neighbor list builds = 0
Dangerous builds = 0

write_dump      all atom dump.${i}
write_dump      all atom dump.6

print           "${rdisp},${SFE}" append gsfe
0.2,799.40652155366

unfix           1
unfix           2

next            i
jump            SELF loop

variable        rdisp equal $i/${steps} # the relative displacement
variable        rdisp equal 7/${steps} 
variable        rdisp equal 7/30 

displace_atoms  upper move 0 ${ydisp} 0 units lattice
displace_atoms  upper move 0 0.0333333333333333 0 units lattice
Displacing atoms ...

fix             1 mobile setforce 0. 0. NULL # only allowed to relax in Z direction
fix             2 boundary setforce 0. 0. 0. # boundary is fixed to avoid the surface effect

min_style       cg
minimize        1E-10 1E-10 100000 100000
WARNING: Using 'neigh_modify every 1 delay 0 check yes' setting during minimization (../min.cpp:188)
Per MPI rank memory allocation (min/avg/max) = 4.213 | 4.213 | 4.213 Mbytes
Step Temp E_pair E_mol TotEng Press 
      63            0    -842.0113            0    -842.0113   -10245.508 
      72            0   -842.04185            0   -842.04185   -9559.4988 
Loop time of 0.171335 on 1 procs for 9 steps with 112 atoms

110.1% CPU use with 1 MPI tasks x no OpenMP threads

Minimization stats:
  Stopping criterion = energy tolerance
  Energy initial, next-to-last, final = 
     -842.011304690634  -842.041854785267  -842.041854830801
  Force two-norm initial, final = 0.57938684 0.00028940951
  Force max component initial, final = 0.14107604 6.0686244e-05
  Final line search alpha, max atom move = 1.0000000 6.0686244e-05
  Iterations, force evaluations = 9 18

MPI task timing breakdown:
Section |  min time  |  avg time  |  max time  |%varavg| %total
---------------------------------------------------------------
Pair    | 0.17098    | 0.17098    | 0.17098    |   0.0 | 99.79
Neigh   | 0          | 0          | 0          |   0.0 |  0.00
Comm    | 0.00010276 | 0.00010276 | 0.00010276 |   0.0 |  0.06
Output  | 0          | 0          | 0          |   0.0 |  0.00
Modify  | 2.9564e-05 | 2.9564e-05 | 2.9564e-05 |   0.0 |  0.02
Other   |            | 0.0002191  |            |       |  0.13

Nlocal:        112.000 ave         112 max         112 min
Histogram: 1 0 0 0 0 0 0 0 0 0
Nghost:        818.000 ave         818 max         818 min
Histogram: 1 0 0 0 0 0 0 0 0 0
Neighs:         0.00000 ave           0 max           0 min
Histogram: 1 0 0 0 0 0 0 0 0 0
FullNghs:      8592.00 ave        8592 max        8592 min
Histogram: 1 0 0 0 0 0 0 0 0 0

Total # of neighbors = 8592
Ave neighs/atom = 76.714286
Neighbor list builds = 0
Dangerous builds = 0

write_dump      all atom dump.${i}
write_dump      all atom dump.7

print           "${rdisp},${SFE}" append gsfe
0.233333333333333,971.490206909267

unfix           1
unfix           2

next            i
jump            SELF loop

variable        rdisp equal $i/${steps} # the relative displacement
variable        rdisp equal 8/${steps} 
variable        rdisp equal 8/30 

displace_atoms  upper move 0 ${ydisp} 0 units lattice
displace_atoms  upper move 0 0.0333333333333333 0 units lattice
Displacing atoms ...

fix             1 mobile setforce 0. 0. NULL # only allowed to relax in Z direction
fix             2 boundary setforce 0. 0. 0. # boundary is fixed to avoid the surface effect

min_style       cg
minimize        1E-10 1E-10 100000 100000
WARNING: Using 'neigh_modify every 1 delay 0 check yes' setting during minimization (../min.cpp:188)
Per MPI rank memory allocation (min/avg/max) = 4.214 | 4.214 | 4.214 Mbytes
Step Temp E_pair E_mol TotEng Press 
      72            0   -841.16114            0   -841.16114   -9486.5988 
      79            0   -841.17528            0   -841.17528   -9223.1234 
Loop time of 0.135796 on 1 procs for 7 steps with 112 atoms

107.6% CPU use with 1 MPI tasks x no OpenMP threads

Minimization stats:
  Stopping criterion = energy tolerance
  Energy initial, next-to-last, final = 
     -841.161143253464   -841.17527856893  -841.175278598523
  Force two-norm initial, final = 0.41179866 5.1027274e-05
  Force max component initial, final = 0.10053883 1.1002496e-05
  Final line search alpha, max atom move = 1.0000000 1.1002496e-05
  Iterations, force evaluations = 7 14

MPI task timing breakdown:
Section |  min time  |  avg time  |  max time  |%varavg| %total
---------------------------------------------------------------
Pair    | 0.13549    | 0.13549    | 0.13549    |   0.0 | 99.77
Neigh   | 0          | 0          | 0          |   0.0 |  0.00
Comm    | 9.7036e-05 | 9.7036e-05 | 9.7036e-05 |   0.0 |  0.07
Output  | 0          | 0          | 0          |   0.0 |  0.00
Modify  | 2.4796e-05 | 2.4796e-05 | 2.4796e-05 |   0.0 |  0.02
Other   |            | 0.000186   |            |       |  0.14

Nlocal:        112.000 ave         112 max         112 min
Histogram: 1 0 0 0 0 0 0 0 0 0
Nghost:        823.000 ave         823 max         823 min
Histogram: 1 0 0 0 0 0 0 0 0 0
Neighs:         0.00000 ave           0 max           0 min
Histogram: 1 0 0 0 0 0 0 0 0 0
FullNghs:      8592.00 ave        8592 max        8592 min
Histogram: 1 0 0 0 0 0 0 0 0 0

Total # of neighbors = 8592
Ave neighs/atom = 76.714286
Neighbor list builds = 0
Dangerous builds = 0

write_dump      all atom dump.${i}
write_dump      all atom dump.8

print           "${rdisp},${SFE}" append gsfe
0.266666666666667,1095.75840342494

unfix           1
unfix           2

next            i
jump            SELF loop

variable        rdisp equal $i/${steps} # the relative displacement
variable        rdisp equal 9/${steps} 
variable        rdisp equal 9/30 

displace_atoms  upper move 0 ${ydisp} 0 units lattice
displace_atoms  upper move 0 0.0333333333333333 0 units lattice
Displacing atoms ...

fix             1 mobile setforce 0. 0. NULL # only allowed to relax in Z direction
fix             2 boundary setforce 0. 0. 0. # boundary is fixed to avoid the surface effect

min_style       cg
minimize        1E-10 1E-10 100000 100000
WARNING: Using 'neigh_modify every 1 delay 0 check yes' setting during minimization (../min.cpp:188)
Per MPI rank memory allocation (min/avg/max) = 4.214 | 4.214 | 4.214 Mbytes
Step Temp E_pair E_mol TotEng Press 
      79            0   -840.71105            0   -840.71105   -9026.6674 
      87            0   -840.71842            0   -840.71842   -8827.8254 
Loop time of 0.153629 on 1 procs for 8 steps with 112 atoms

114.9% CPU use with 1 MPI tasks x no OpenMP threads

Minimization stats:
  Stopping criterion = energy tolerance
  Energy initial, next-to-last, final = 
     -840.711051960132  -840.718419858799  -840.718419892542
  Force two-norm initial, final = 0.28361802 0.00033894717
  Force max component initial, final = 0.067644891 6.0299847e-05
  Final line search alpha, max atom move = 1.0000000 6.0299847e-05
  Iterations, force evaluations = 8 16

MPI task timing breakdown:
Section |  min time  |  avg time  |  max time  |%varavg| %total
---------------------------------------------------------------
Pair    | 0.15331    | 0.15331    | 0.15331    |   0.0 | 99.80
Neigh   | 0          | 0          | 0          |   0.0 |  0.00
Comm    | 0.00010276 | 0.00010276 | 0.00010276 |   0.0 |  0.07
Output  | 0          | 0          | 0          |   0.0 |  0.00
Modify  | 2.3603e-05 | 2.3603e-05 | 2.3603e-05 |   0.0 |  0.02
Other   |            | 0.0001881  |            |       |  0.12

Nlocal:        112.000 ave         112 max         112 min
Histogram: 1 0 0 0 0 0 0 0 0 0
Nghost:        819.000 ave         819 max         819 min
Histogram: 1 0 0 0 0 0 0 0 0 0
Neighs:         0.00000 ave           0 max           0 min
Histogram: 1 0 0 0 0 0 0 0 0 0
FullNghs:      8608.00 ave        8608 max        8608 min
Histogram: 1 0 0 0 0 0 0 0 0 0

Total # of neighbors = 8608
Ave neighs/atom = 76.857143
Neighbor list builds = 0
Dangerous builds = 0

write_dump      all atom dump.${i}
write_dump      all atom dump.9

print           "${rdisp},${SFE}" append gsfe
0.3,1161.2725559484

unfix           1
unfix           2

next            i
jump            SELF loop

variable        rdisp equal $i/${steps} # the relative displacement
variable        rdisp equal 10/${steps} 
variable        rdisp equal 10/30 

displace_atoms  upper move 0 ${ydisp} 0 units lattice
displace_atoms  upper move 0 0.0333333333333333 0 units lattice
Displacing atoms ...

fix             1 mobile setforce 0. 0. NULL # only allowed to relax in Z direction
fix             2 boundary setforce 0. 0. 0. # boundary is fixed to avoid the surface effect

min_style       cg
minimize        1E-10 1E-10 100000 100000
WARNING: Using 'neigh_modify every 1 delay 0 check yes' setting during minimization (../min.cpp:188)
Per MPI rank memory allocation (min/avg/max) = 4.214 | 4.214 | 4.214 Mbytes
Step Temp E_pair E_mol TotEng Press 
      87            0   -840.69275            0   -840.69275   -8802.3333 
      94            0   -840.69433            0   -840.69433   -8766.2437 
Loop time of 0.135727 on 1 procs for 7 steps with 112 atoms

114.0% CPU use with 1 MPI tasks x no OpenMP threads

Minimization stats:
  Stopping criterion = energy tolerance
  Energy initial, next-to-last, final = 
     -840.692749356729  -840.694327853496  -840.694327859948
  Force two-norm initial, final = 0.13338648 7.3123471e-05
  Force max component initial, final = 0.023215356 1.2016885e-05
  Final line search alpha, max atom move = 1.0000000 1.2016885e-05
  Iterations, force evaluations = 7 14

MPI task timing breakdown:
Section |  min time  |  avg time  |  max time  |%varavg| %total
---------------------------------------------------------------
Pair    | 0.13543    | 0.13543    | 0.13543    |   0.0 | 99.78
Neigh   | 0          | 0          | 0          |   0.0 |  0.00
Comm    | 9.0122e-05 | 9.0122e-05 | 9.0122e-05 |   0.0 |  0.07
Output  | 0          | 0          | 0          |   0.0 |  0.00
Modify  | 2.4557e-05 | 2.4557e-05 | 2.4557e-05 |   0.0 |  0.02
Other   |            | 0.00018    |            |       |  0.13

Nlocal:        112.000 ave         112 max         112 min
Histogram: 1 0 0 0 0 0 0 0 0 0
Nghost:        819.000 ave         819 max         819 min
Histogram: 1 0 0 0 0 0 0 0 0 0
Neighs:         0.00000 ave           0 max           0 min
Histogram: 1 0 0 0 0 0 0 0 0 0
FullNghs:      8544.00 ave        8544 max        8544 min
Histogram: 1 0 0 0 0 0 0 0 0 0

Total # of neighbors = 8544
Ave neighs/atom = 76.285714
Neighbor list builds = 0
Dangerous builds = 0

write_dump      all atom dump.${i}
write_dump      all atom dump.10

print           "${rdisp},${SFE}" append gsfe
0.333333333333333,1164.72738580561

unfix           1
unfix           2

next            i
jump            SELF loop

variable        rdisp equal $i/${steps} # the relative displacement
variable        rdisp equal 11/${steps} 
variable        rdisp equal 11/30 

displace_atoms  upper move 0 ${ydisp} 0 units lattice
displace_atoms  upper move 0 0.0333333333333333 0 units lattice
Displacing atoms ...

fix             1 mobile setforce 0. 0. NULL # only allowed to relax in Z direction
fix             2 boundary setforce 0. 0. 0. # boundary is fixed to avoid the surface effect

min_style       cg
minimize        1E-10 1E-10 100000 100000
WARNING: Using 'neigh_modify every 1 delay 0 check yes' setting during minimization (../min.cpp:188)
Per MPI rank memory allocation (min/avg/max) = 4.214 | 4.214 | 4.214 Mbytes
Step Temp E_pair E_mol TotEng Press 
      94            0   -841.05857            0   -841.05857   -8966.2244 
     101            0    -841.0646            0    -841.0646   -9094.9212 
Loop time of 0.135685 on 1 procs for 7 steps with 112 atoms

114.5% CPU use with 1 MPI tasks x no OpenMP threads

Minimization stats:
  Stopping criterion = energy tolerance
  Energy initial, next-to-last, final = 
     -841.058565215117  -841.064603011254  -841.064603026228
  Force two-norm initial, final = 0.23919851 0.00011997663
  Force max component initial, final = 0.045690351 2.3852979e-05
  Final line search alpha, max atom move = 1.0000000 2.3852979e-05
  Iterations, force evaluations = 7 14

MPI task timing breakdown:
Section |  min time  |  avg time  |  max time  |%varavg| %total
---------------------------------------------------------------
Pair    | 0.13544    | 0.13544    | 0.13544    |   0.0 | 99.82
Neigh   | 0          | 0          | 0          |   0.0 |  0.00
Comm    | 7.987e-05  | 7.987e-05  | 7.987e-05  |   0.0 |  0.06
Output  | 0          | 0          | 0          |   0.0 |  0.00
Modify  | 2.0981e-05 | 2.0981e-05 | 2.0981e-05 |   0.0 |  0.02
Other   |            | 0.0001473  |            |       |  0.11

Nlocal:        112.000 ave         112 max         112 min
Histogram: 1 0 0 0 0 0 0 0 0 0
Nghost:        819.000 ave         819 max         819 min
Histogram: 1 0 0 0 0 0 0 0 0 0
Neighs:         0.00000 ave           0 max           0 min
Histogram: 1 0 0 0 0 0 0 0 0 0
FullNghs:      8576.00 ave        8576 max        8576 min
Histogram: 1 0 0 0 0 0 0 0 0 0

Total # of neighbors = 8576
Ave neighs/atom = 76.571429
Neighbor list builds = 0
Dangerous builds = 0

write_dump      all atom dump.${i}
write_dump      all atom dump.11

print           "${rdisp},${SFE}" append gsfe
0.366666666666667,1111.62942925639

unfix           1
unfix           2

next            i
jump            SELF loop

variable        rdisp equal $i/${steps} # the relative displacement
variable        rdisp equal 12/${steps} 
variable        rdisp equal 12/30 

displace_atoms  upper move 0 ${ydisp} 0 units lattice
displace_atoms  upper move 0 0.0333333333333333 0 units lattice
Displacing atoms ...

fix             1 mobile setforce 0. 0. NULL # only allowed to relax in Z direction
fix             2 boundary setforce 0. 0. 0. # boundary is fixed to avoid the surface effect

min_style       cg
minimize        1E-10 1E-10 100000 100000
WARNING: Using 'neigh_modify every 1 delay 0 check yes' setting during minimization (../min.cpp:188)
Per MPI rank memory allocation (min/avg/max) = 4.214 | 4.214 | 4.214 Mbytes
Step Temp E_pair E_mol TotEng Press 
     101            0   -841.72891            0   -841.72891   -9639.0959 
     110            0   -841.74827            0   -841.74827   -9768.2937 
Loop time of 0.171613 on 1 procs for 9 steps with 112 atoms

112.8% CPU use with 1 MPI tasks x no OpenMP threads

Minimization stats:
  Stopping criterion = energy tolerance
  Energy initial, next-to-last, final = 
     -841.728909321376  -841.748267142984  -841.748267161572
  Force two-norm initial, final = 0.47141663 0.00016950761
  Force max component initial, final = 0.096689155 2.7775718e-05
  Final line search alpha, max atom move = 1.0000000 2.7775718e-05
  Iterations, force evaluations = 9 18

MPI task timing breakdown:
Section |  min time  |  avg time  |  max time  |%varavg| %total
---------------------------------------------------------------
Pair    | 0.17127    | 0.17127    | 0.17127    |   0.0 | 99.80
Neigh   | 0          | 0          | 0          |   0.0 |  0.00
Comm    | 0.00010443 | 0.00010443 | 0.00010443 |   0.0 |  0.06
Output  | 0          | 0          | 0          |   0.0 |  0.00
Modify  | 2.7657e-05 | 2.7657e-05 | 2.7657e-05 |   0.0 |  0.02
Other   |            | 0.0002098  |            |       |  0.12

Nlocal:        112.000 ave         112 max         112 min
Histogram: 1 0 0 0 0 0 0 0 0 0
Nghost:        824.000 ave         824 max         824 min
Histogram: 1 0 0 0 0 0 0 0 0 0
Neighs:         0.00000 ave           0 max           0 min
Histogram: 1 0 0 0 0 0 0 0 0 0
FullNghs:      8544.00 ave        8544 max        8544 min
Histogram: 1 0 0 0 0 0 0 0 0 0

Total # of neighbors = 8544
Ave neighs/atom = 76.285714
Neighbor list builds = 0
Dangerous builds = 0

write_dump      all atom dump.${i}
write_dump      all atom dump.12

print           "${rdisp},${SFE}" append gsfe
0.4,1013.59107330212

unfix           1
unfix           2

next            i
jump            SELF loop

variable        rdisp equal $i/${steps} # the relative displacement
variable        rdisp equal 13/${steps} 
variable        rdisp equal 13/30 

displace_atoms  upper move 0 ${ydisp} 0 units lattice
displace_atoms  upper move 0 0.0333333333333333 0 units lattice
Displacing atoms ...

fix             1 mobile setforce 0. 0. NULL # only allowed to relax in Z direction
fix             2 boundary setforce 0. 0. 0. # boundary is fixed to avoid the surface effect

min_style       cg
minimize        1E-10 1E-10 100000 100000
WARNING: Using 'neigh_modify every 1 delay 0 check yes' setting during minimization (../min.cpp:188)
Per MPI rank memory allocation (min/avg/max) = 4.214 | 4.214 | 4.214 Mbytes
Step Temp E_pair E_mol TotEng Press 
     110            0   -842.59305            0   -842.59305   -10074.302 
     117            0   -842.61273            0   -842.61273   -10239.819 
Loop time of 0.135363 on 1 procs for 7 steps with 112 atoms

112.5% CPU use with 1 MPI tasks x no OpenMP threads

Minimization stats:
  Stopping criterion = energy tolerance
  Energy initial, next-to-last, final = 
     -842.593050761952  -842.612734085711  -842.612734093931
  Force two-norm initial, final = 0.47741759 0.00016633157
  Force max component initial, final = 0.10203408 3.8303282e-05
  Final line search alpha, max atom move = 1.0000000 3.8303282e-05
  Iterations, force evaluations = 7 14

MPI task timing breakdown:
Section |  min time  |  avg time  |  max time  |%varavg| %total
---------------------------------------------------------------
Pair    | 0.1351     | 0.1351     | 0.1351     |   0.0 | 99.81
Neigh   | 0          | 0          | 0          |   0.0 |  0.00
Comm    | 7.7486e-05 | 7.7486e-05 | 7.7486e-05 |   0.0 |  0.06
Output  | 0          | 0          | 0          |   0.0 |  0.00
Modify  | 2.1458e-05 | 2.1458e-05 | 2.1458e-05 |   0.0 |  0.02
Other   |            | 0.0001597  |            |       |  0.12

Nlocal:        112.000 ave         112 max         112 min
Histogram: 1 0 0 0 0 0 0 0 0 0
Nghost:        819.000 ave         819 max         819 min
Histogram: 1 0 0 0 0 0 0 0 0 0
Neighs:         0.00000 ave           0 max           0 min
Histogram: 1 0 0 0 0 0 0 0 0 0
FullNghs:      8544.00 ave        8544 max        8544 min
Histogram: 1 0 0 0 0 0 0 0 0 0

Total # of neighbors = 8544
Ave neighs/atom = 76.285714
Neighbor list builds = 0
Dangerous builds = 0

write_dump      all atom dump.${i}
write_dump      all atom dump.13

print           "${rdisp},${SFE}" append gsfe
0.433333333333333,889.625353230156

unfix           1
unfix           2

next            i
jump            SELF loop

variable        rdisp equal $i/${steps} # the relative displacement
variable        rdisp equal 14/${steps} 
variable        rdisp equal 14/30 

displace_atoms  upper move 0 ${ydisp} 0 units lattice
displace_atoms  upper move 0 0.0333333333333333 0 units lattice
Displacing atoms ...

fix             1 mobile setforce 0. 0. NULL # only allowed to relax in Z direction
fix             2 boundary setforce 0. 0. 0. # boundary is fixed to avoid the surface effect

min_style       cg
minimize        1E-10 1E-10 100000 100000
WARNING: Using 'neigh_modify every 1 delay 0 check yes' setting during minimization (../min.cpp:188)
Per MPI rank memory allocation (min/avg/max) = 4.214 | 4.214 | 4.214 Mbytes
Step Temp E_pair E_mol TotEng Press 
     117            0   -843.47378            0   -843.47378   -10282.177 
     124            0   -843.47874            0   -843.47874     -10423.2 
Loop time of 0.135448 on 1 procs for 7 steps with 112 atoms

114.5% CPU use with 1 MPI tasks x no OpenMP threads

Minimization stats:
  Stopping criterion = energy tolerance
  Energy initial, next-to-last, final = 
     -843.473784598418  -843.478738128403  -843.478738136076
  Force two-norm initial, final = 0.25435910 9.4635741e-05
  Force max component initial, final = 0.058220115 2.2402576e-05
  Final line search alpha, max atom move = 1.0000000 2.2402576e-05
  Iterations, force evaluations = 7 14

MPI task timing breakdown:
Section |  min time  |  avg time  |  max time  |%varavg| %total
---------------------------------------------------------------
Pair    | 0.13515    | 0.13515    | 0.13515    |   0.0 | 99.78
Neigh   | 0          | 0          | 0          |   0.0 |  0.00
Comm    | 8.893e-05  | 8.893e-05  | 8.893e-05  |   0.0 |  0.07
Output  | 0          | 0          | 0          |   0.0 |  0.00
Modify  | 2.3603e-05 | 2.3603e-05 | 2.3603e-05 |   0.0 |  0.02
Other   |            | 0.000181   |            |       |  0.13

Nlocal:        112.000 ave         112 max         112 min
Histogram: 1 0 0 0 0 0 0 0 0 0
Nghost:        819.000 ave         819 max         819 min
Histogram: 1 0 0 0 0 0 0 0 0 0
Neighs:         0.00000 ave           0 max           0 min
Histogram: 1 0 0 0 0 0 0 0 0 0
FullNghs:      8544.00 ave        8544 max        8544 min
Histogram: 1 0 0 0 0 0 0 0 0 0

Total # of neighbors = 8544
Ave neighs/atom = 76.285714
Neighbor list builds = 0
Dangerous builds = 0

write_dump      all atom dump.${i}
write_dump      all atom dump.14

print           "${rdisp},${SFE}" append gsfe
0.466666666666667,765.439209548789

unfix           1
unfix           2

next            i
jump            SELF loop

variable        rdisp equal $i/${steps} # the relative displacement
variable        rdisp equal 15/${steps} 
variable        rdisp equal 15/30 

displace_atoms  upper move 0 ${ydisp} 0 units lattice
displace_atoms  upper move 0 0.0333333333333333 0 units lattice
Displacing atoms ...

fix             1 mobile setforce 0. 0. NULL # only allowed to relax in Z direction
fix             2 boundary setforce 0. 0. 0. # boundary is fixed to avoid the surface effect

min_style       cg
minimize        1E-10 1E-10 100000 100000
WARNING: Using 'neigh_modify every 1 delay 0 check yes' setting during minimization (../min.cpp:188)
Per MPI rank memory allocation (min/avg/max) = 4.214 | 4.214 | 4.214 Mbytes
Step Temp E_pair E_mol TotEng Press 
     124            0   -844.18986            0   -844.18986   -10589.962 
     131            0    -844.1959            0    -844.1959   -10747.337 
Loop time of 0.134996 on 1 procs for 7 steps with 112 atoms

110.6% CPU use with 1 MPI tasks x no OpenMP threads

Minimization stats:
  Stopping criterion = energy tolerance
  Energy initial, next-to-last, final = 
     -844.189860890248  -844.195902913761  -844.195902957478
  Force two-norm initial, final = 0.26754948 0.00017397439
  Force max component initial, final = 0.059864765 2.7068379e-05
  Final line search alpha, max atom move = 1.0000000 2.7068379e-05
  Iterations, force evaluations = 7 14

MPI task timing breakdown:
Section |  min time  |  avg time  |  max time  |%varavg| %total
---------------------------------------------------------------
Pair    | 0.13473    | 0.13473    | 0.13473    |   0.0 | 99.80
Neigh   | 0          | 0          | 0          |   0.0 |  0.00
Comm    | 8.1778e-05 | 8.1778e-05 | 8.1778e-05 |   0.0 |  0.06
Output  | 0          | 0          | 0          |   0.0 |  0.00
Modify  | 2.1458e-05 | 2.1458e-05 | 2.1458e-05 |   0.0 |  0.02
Other   |            | 0.0001664  |            |       |  0.12

Nlocal:        112.000 ave         112 max         112 min
Histogram: 1 0 0 0 0 0 0 0 0 0
Nghost:        818.000 ave         818 max         818 min
Histogram: 1 0 0 0 0 0 0 0 0 0
Neighs:         0.00000 ave           0 max           0 min
Histogram: 1 0 0 0 0 0 0 0 0 0
FullNghs:      8624.00 ave        8624 max        8624 min
Histogram: 1 0 0 0 0 0 0 0 0 0

Total # of neighbors = 8624
Ave neighs/atom = 77.000000
Neighbor list builds = 0
Dangerous builds = 0

write_dump      all atom dump.${i}
write_dump      all atom dump.15

print           "${rdisp},${SFE}" append gsfe
0.5,662.596810183838

unfix           1
unfix           2

next            i
jump            SELF loop

variable        rdisp equal $i/${steps} # the relative displacement
variable        rdisp equal 16/${steps} 
variable        rdisp equal 16/30 

displace_atoms  upper move 0 ${ydisp} 0 units lattice
displace_atoms  upper move 0 0.0333333333333333 0 units lattice
Displacing atoms ...

fix             1 mobile setforce 0. 0. NULL # only allowed to relax in Z direction
fix             2 boundary setforce 0. 0. 0. # boundary is fixed to avoid the surface effect

min_style       cg
minimize        1E-10 1E-10 100000 100000
WARNING: Using 'neigh_modify every 1 delay 0 check yes' setting during minimization (../min.cpp:188)
Per MPI rank memory allocation (min/avg/max) = 4.214 | 4.214 | 4.214 Mbytes
Step Temp E_pair E_mol TotEng Press 
     131            0   -844.67602            0   -844.67602   -10668.644 
     138            0   -844.69077            0   -844.69077   -10840.388 
Loop time of 0.135226 on 1 procs for 7 steps with 112 atoms

108.0% CPU use with 1 MPI tasks x no OpenMP threads

Minimization stats:
  Stopping criterion = energy tolerance
  Energy initial, next-to-last, final = 
     -844.676020600817  -844.690764969395  -844.690765015181
  Force two-norm initial, final = 0.36488689 0.00043987027
  Force max component initial, final = 0.079438382 9.3673321e-05
  Final line search alpha, max atom move = 1.0000000 9.3673321e-05
  Iterations, force evaluations = 7 14

MPI task timing breakdown:
Section |  min time  |  avg time  |  max time  |%varavg| %total
---------------------------------------------------------------
Pair    | 0.13496    | 0.13496    | 0.13496    |   0.0 | 99.80
Neigh   | 0          | 0          | 0          |   0.0 |  0.00
Comm    | 7.5102e-05 | 7.5102e-05 | 7.5102e-05 |   0.0 |  0.06
Output  | 0          | 0          | 0          |   0.0 |  0.00
Modify  | 2.0504e-05 | 2.0504e-05 | 2.0504e-05 |   0.0 |  0.02
Other   |            | 0.0001705  |            |       |  0.13

Nlocal:        112.000 ave         112 max         112 min
Histogram: 1 0 0 0 0 0 0 0 0 0
Nghost:        823.000 ave         823 max         823 min
Histogram: 1 0 0 0 0 0 0 0 0 0
Neighs:         0.00000 ave           0 max           0 min
Histogram: 1 0 0 0 0 0 0 0 0 0
FullNghs:      8560.00 ave        8560 max        8560 min
Histogram: 1 0 0 0 0 0 0 0 0 0

Total # of neighbors = 8560
Ave neighs/atom = 76.428571
Neighbor list builds = 0
Dangerous builds = 0

write_dump      all atom dump.${i}
write_dump      all atom dump.16

print           "${rdisp},${SFE}" append gsfe
0.533333333333333,591.632925941348

unfix           1
unfix           2

next            i
jump            SELF loop

variable        rdisp equal $i/${steps} # the relative displacement
variable        rdisp equal 17/${steps} 
variable        rdisp equal 17/30 

displace_atoms  upper move 0 ${ydisp} 0 units lattice
displace_atoms  upper move 0 0.0333333333333333 0 units lattice
Displacing atoms ...

fix             1 mobile setforce 0. 0. NULL # only allowed to relax in Z direction
fix             2 boundary setforce 0. 0. 0. # boundary is fixed to avoid the surface effect

min_style       cg
minimize        1E-10 1E-10 100000 100000
WARNING: Using 'neigh_modify every 1 delay 0 check yes' setting during minimization (../min.cpp:188)
Per MPI rank memory allocation (min/avg/max) = 4.214 | 4.214 | 4.214 Mbytes
Step Temp E_pair E_mol TotEng Press 
     138            0   -844.95501            0   -844.95501   -10829.743 
     146            0    -844.9726            0    -844.9726   -11063.383 
Loop time of 0.152844 on 1 procs for 8 steps with 112 atoms

114.5% CPU use with 1 MPI tasks x no OpenMP threads

Minimization stats:
  Stopping criterion = energy tolerance
  Energy initial, next-to-last, final = 
     -844.955011990136  -844.972595753507  -844.972595776945
  Force two-norm initial, final = 0.46196167 0.00022966748
  Force max component initial, final = 0.082975991 3.5770514e-05
  Final line search alpha, max atom move = 1.0000000 3.5770514e-05
  Iterations, force evaluations = 8 16

MPI task timing breakdown:
Section |  min time  |  avg time  |  max time  |%varavg| %total
---------------------------------------------------------------
Pair    | 0.15256    | 0.15256    | 0.15256    |   0.0 | 99.82
Neigh   | 0          | 0          | 0          |   0.0 |  0.00
Comm    | 8.893e-05  | 8.893e-05  | 8.893e-05  |   0.0 |  0.06
Output  | 0          | 0          | 0          |   0.0 |  0.00
Modify  | 2.408e-05  | 2.408e-05  | 2.408e-05  |   0.0 |  0.02
Other   |            | 0.000169   |            |       |  0.11

Nlocal:        112.000 ave         112 max         112 min
Histogram: 1 0 0 0 0 0 0 0 0 0
Nghost:        819.000 ave         819 max         819 min
Histogram: 1 0 0 0 0 0 0 0 0 0
Neighs:         0.00000 ave           0 max           0 min
Histogram: 1 0 0 0 0 0 0 0 0 0
FullNghs:      8592.00 ave        8592 max        8592 min
Histogram: 1 0 0 0 0 0 0 0 0 0

Total # of neighbors = 8592
Ave neighs/atom = 76.714286
Neighbor list builds = 0
Dangerous builds = 0

write_dump      all atom dump.${i}
write_dump      all atom dump.17

print           "${rdisp},${SFE}" append gsfe
0.566666666666667,551.218015881971

unfix           1
unfix           2

next            i
jump            SELF loop

variable        rdisp equal $i/${steps} # the relative displacement
variable        rdisp equal 18/${steps} 
variable        rdisp equal 18/30 

displace_atoms  upper move 0 ${ydisp} 0 units lattice
displace_atoms  upper move 0 0.0333333333333333 0 units lattice
Displacing atoms ...

fix             1 mobile setforce 0. 0. NULL # only allowed to relax in Z direction
fix             2 boundary setforce 0. 0. 0. # boundary is fixed to avoid the surface effect

min_style       cg
minimize        1E-10 1E-10 100000 100000
WARNING: Using 'neigh_modify every 1 delay 0 check yes' setting during minimization (../min.cpp:188)
Per MPI rank memory allocation (min/avg/max) = 4.214 | 4.214 | 4.214 Mbytes
Step Temp E_pair E_mol TotEng Press 
     146            0   -845.07034            0   -845.07034   -11191.866 
     154            0   -845.09599            0   -845.09599   -11472.037 
Loop time of 0.153179 on 1 procs for 8 steps with 112 atoms

110.7% CPU use with 1 MPI tasks x no OpenMP threads

Minimization stats:
  Stopping criterion = energy tolerance
  Energy initial, next-to-last, final = 
     -845.070338188442  -845.095993901562  -845.095993906395
  Force two-norm initial, final = 0.59136654 5.3026550e-05
  Force max component initial, final = 0.12095401 8.8093294e-06
  Final line search alpha, max atom move = 1.0000000 8.8093294e-06
  Iterations, force evaluations = 8 16

MPI task timing breakdown:
Section |  min time  |  avg time  |  max time  |%varavg| %total
---------------------------------------------------------------
Pair    | 0.1529     | 0.1529     | 0.1529     |   0.0 | 99.82
Neigh   | 0          | 0          | 0          |   0.0 |  0.00
Comm    | 8.7976e-05 | 8.7976e-05 | 8.7976e-05 |   0.0 |  0.06
Output  | 0          | 0          | 0          |   0.0 |  0.00
Modify  | 2.5511e-05 | 2.5511e-05 | 2.5511e-05 |   0.0 |  0.02
Other   |            | 0.0001698  |            |       |  0.11

Nlocal:        112.000 ave         112 max         112 min
Histogram: 1 0 0 0 0 0 0 0 0 0
Nghost:        819.000 ave         819 max         819 min
Histogram: 1 0 0 0 0 0 0 0 0 0
Neighs:         0.00000 ave           0 max           0 min
Histogram: 1 0 0 0 0 0 0 0 0 0
FullNghs:      8464.00 ave        8464 max        8464 min
Histogram: 1 0 0 0 0 0 0 0 0 0

Total # of neighbors = 8464
Ave neighs/atom = 75.571429
Neighbor list builds = 0
Dangerous builds = 0

write_dump      all atom dump.${i}
write_dump      all atom dump.18

print           "${rdisp},${SFE}" append gsfe
0.6,533.522558253508

unfix           1
unfix           2

next            i
jump            SELF loop

variable        rdisp equal $i/${steps} # the relative displacement
variable        rdisp equal 19/${steps} 
variable        rdisp equal 19/30 

displace_atoms  upper move 0 ${ydisp} 0 units lattice
displace_atoms  upper move 0 0.0333333333333333 0 units lattice
Displacing atoms ...

fix             1 mobile setforce 0. 0. NULL # only allowed to relax in Z direction
fix             2 boundary setforce 0. 0. 0. # boundary is fixed to avoid the surface effect

min_style       cg
minimize        1E-10 1E-10 100000 100000
WARNING: Using 'neigh_modify every 1 delay 0 check yes' setting during minimization (../min.cpp:188)
Per MPI rank memory allocation (min/avg/max) = 4.214 | 4.214 | 4.214 Mbytes
Step Temp E_pair E_mol TotEng Press 
     154            0    -845.0846            0    -845.0846   -11441.331 
     162            0   -845.10551            0   -845.10551   -11738.232 
Loop time of 0.153275 on 1 procs for 8 steps with 112 atoms

115.7% CPU use with 1 MPI tasks x no OpenMP threads

Minimization stats:
  Stopping criterion = energy tolerance
  Energy initial, next-to-last, final = 
     -845.084599043248  -845.105513601456  -845.105513611591
  Force two-norm initial, final = 0.50117032 0.00010439778
  Force max component initial, final = 0.090852401 1.9138654e-05
  Final line search alpha, max atom move = 1.0000000 1.9138654e-05
  Iterations, force evaluations = 8 16

MPI task timing breakdown:
Section |  min time  |  avg time  |  max time  |%varavg| %total
---------------------------------------------------------------
Pair    | 0.153      | 0.153      | 0.153      |   0.0 | 99.82
Neigh   | 0          | 0          | 0          |   0.0 |  0.00
Comm    | 8.6308e-05 | 8.6308e-05 | 8.6308e-05 |   0.0 |  0.06
Output  | 0          | 0          | 0          |   0.0 |  0.00
Modify  | 2.3842e-05 | 2.3842e-05 | 2.3842e-05 |   0.0 |  0.02
Other   |            | 0.0001676  |            |       |  0.11

Nlocal:        112.000 ave         112 max         112 min
Histogram: 1 0 0 0 0 0 0 0 0 0
Nghost:        818.000 ave         818 max         818 min
Histogram: 1 0 0 0 0 0 0 0 0 0
Neighs:         0.00000 ave           0 max           0 min
Histogram: 1 0 0 0 0 0 0 0 0 0
FullNghs:      8480.00 ave        8480 max        8480 min
Histogram: 1 0 0 0 0 0 0 0 0 0

Total # of neighbors = 8480
Ave neighs/atom = 75.714286
Neighbor list builds = 0
Dangerous builds = 0

write_dump      all atom dump.${i}
write_dump      all atom dump.19

print           "${rdisp},${SFE}" append gsfe
0.633333333333333,532.15741973249

unfix           1
unfix           2

next            i
jump            SELF loop

variable        rdisp equal $i/${steps} # the relative displacement
variable        rdisp equal 20/${steps} 
variable        rdisp equal 20/30 

displace_atoms  upper move 0 ${ydisp} 0 units lattice
displace_atoms  upper move 0 0.0333333333333333 0 units lattice
Displacing atoms ...

fix             1 mobile setforce 0. 0. NULL # only allowed to relax in Z direction
fix             2 boundary setforce 0. 0. 0. # boundary is fixed to avoid the surface effect

min_style       cg
minimize        1E-10 1E-10 100000 100000
WARNING: Using 'neigh_modify every 1 delay 0 check yes' setting during minimization (../min.cpp:188)
Per MPI rank memory allocation (min/avg/max) = 4.214 | 4.214 | 4.214 Mbytes
Step Temp E_pair E_mol TotEng Press 
     162            0   -845.07287            0   -845.07287    -11583.87 
     168            0   -845.08692            0   -845.08692   -11732.072 
Loop time of 0.117042 on 1 procs for 6 steps with 112 atoms

110.2% CPU use with 1 MPI tasks x no OpenMP threads

Minimization stats:
  Stopping criterion = energy tolerance
  Energy initial, next-to-last, final = 
     -845.072870808997   -845.08691814526   -845.08691822648
  Force two-norm initial, final = 0.39460741 0.00020490148
  Force max component initial, final = 0.084970508 3.6598904e-05
  Final line search alpha, max atom move = 1.0000000 3.6598904e-05
  Iterations, force evaluations = 6 12

MPI task timing breakdown:
Section |  min time  |  avg time  |  max time  |%varavg| %total
---------------------------------------------------------------
Pair    | 0.11681    | 0.11681    | 0.11681    |   0.0 | 99.81
Neigh   | 0          | 0          | 0          |   0.0 |  0.00
Comm    | 6.9618e-05 | 6.9618e-05 | 6.9618e-05 |   0.0 |  0.06
Output  | 0          | 0          | 0          |   0.0 |  0.00
Modify  | 1.9312e-05 | 1.9312e-05 | 1.9312e-05 |   0.0 |  0.02
Other   |            | 0.0001388  |            |       |  0.12

Nlocal:        112.000 ave         112 max         112 min
Histogram: 1 0 0 0 0 0 0 0 0 0
Nghost:        818.000 ave         818 max         818 min
Histogram: 1 0 0 0 0 0 0 0 0 0
Neighs:         0.00000 ave           0 max           0 min
Histogram: 1 0 0 0 0 0 0 0 0 0
FullNghs:      8416.00 ave        8416 max        8416 min
Histogram: 1 0 0 0 0 0 0 0 0 0

Total # of neighbors = 8416
Ave neighs/atom = 75.142857
Neighbor list builds = 0
Dangerous builds = 0

write_dump      all atom dump.${i}
write_dump      all atom dump.20

print           "${rdisp},${SFE}" append gsfe
0.666666666666667,534.824022952376

unfix           1
unfix           2

next            i
jump            SELF loop

variable        rdisp equal $i/${steps} # the relative displacement
variable        rdisp equal 21/${steps} 
variable        rdisp equal 21/30 

displace_atoms  upper move 0 ${ydisp} 0 units lattice
displace_atoms  upper move 0 0.0333333333333333 0 units lattice
Displacing atoms ...

fix             1 mobile setforce 0. 0. NULL # only allowed to relax in Z direction
fix             2 boundary setforce 0. 0. 0. # boundary is fixed to avoid the surface effect

min_style       cg
minimize        1E-10 1E-10 100000 100000
WARNING: Using 'neigh_modify every 1 delay 0 check yes' setting during minimization (../min.cpp:188)
Per MPI rank memory allocation (min/avg/max) = 4.214 | 4.214 | 4.214 Mbytes
Step Temp E_pair E_mol TotEng Press 
     168            0   -844.95442            0   -844.95442   -11993.262 
     174            0   -844.95685            0   -844.95685   -12018.901 
Loop time of 0.117075 on 1 procs for 6 steps with 112 atoms

116.1% CPU use with 1 MPI tasks x no OpenMP threads

Minimization stats:
  Stopping criterion = energy tolerance
  Energy initial, next-to-last, final = 
     -844.954422975135   -844.95685492012   -844.95685493086
  Force two-norm initial, final = 0.16769423 2.4501358e-05
  Force max component initial, final = 0.033854991 3.8735665e-06
  Final line search alpha, max atom move = 1.0000000 3.8735665e-06
  Iterations, force evaluations = 6 12

MPI task timing breakdown:
Section |  min time  |  avg time  |  max time  |%varavg| %total
---------------------------------------------------------------
Pair    | 0.11687    | 0.11687    | 0.11687    |   0.0 | 99.83
Neigh   | 0          | 0          | 0          |   0.0 |  0.00
Comm    | 6.1035e-05 | 6.1035e-05 | 6.1035e-05 |   0.0 |  0.05
Output  | 0          | 0          | 0          |   0.0 |  0.00
Modify  | 1.7405e-05 | 1.7405e-05 | 1.7405e-05 |   0.0 |  0.01
Other   |            | 0.0001225  |            |       |  0.10

Nlocal:        112.000 ave         112 max         112 min
Histogram: 1 0 0 0 0 0 0 0 0 0
Nghost:        773.000 ave         773 max         773 min
Histogram: 1 0 0 0 0 0 0 0 0 0
Neighs:         0.00000 ave           0 max           0 min
Histogram: 1 0 0 0 0 0 0 0 0 0
FullNghs:      8368.00 ave        8368 max        8368 min
Histogram: 1 0 0 0 0 0 0 0 0 0

Total # of neighbors = 8368
Ave neighs/atom = 74.714286
Neighbor list builds = 0
Dangerous builds = 0

write_dump      all atom dump.${i}
write_dump      all atom dump.21

print           "${rdisp},${SFE}" append gsfe
0.7,553.475274368576

unfix           1
unfix           2

next            i
jump            SELF loop

variable        rdisp equal $i/${steps} # the relative displacement
variable        rdisp equal 22/${steps} 
variable        rdisp equal 22/30 

displace_atoms  upper move 0 ${ydisp} 0 units lattice
displace_atoms  upper move 0 0.0333333333333333 0 units lattice
Displacing atoms ...

fix             1 mobile setforce 0. 0. NULL # only allowed to relax in Z direction
fix             2 boundary setforce 0. 0. 0. # boundary is fixed to avoid the surface effect

min_style       cg
minimize        1E-10 1E-10 100000 100000
WARNING: Using 'neigh_modify every 1 delay 0 check yes' setting during minimization (../min.cpp:188)
Per MPI rank memory allocation (min/avg/max) = 4.214 | 4.214 | 4.214 Mbytes
Step Temp E_pair E_mol TotEng Press 
     174            0   -844.80574            0   -844.80574   -11576.107 
     180            0   -844.80836            0   -844.80836   -11528.581 
Loop time of 0.117424 on 1 procs for 6 steps with 112 atoms

115.8% CPU use with 1 MPI tasks x no OpenMP threads

Minimization stats:
  Stopping criterion = energy tolerance
  Energy initial, next-to-last, final = 
     -844.805736982197  -844.808355526028  -844.808355539601
  Force two-norm initial, final = 0.18951746 9.1044701e-05
  Force max component initial, final = 0.041863697 1.7399771e-05
  Final line search alpha, max atom move = 1.0000000 1.7399771e-05
  Iterations, force evaluations = 6 12

MPI task timing breakdown:
Section |  min time  |  avg time  |  max time  |%varavg| %total
---------------------------------------------------------------
Pair    | 0.11719    | 0.11719    | 0.11719    |   0.0 | 99.80
Neigh   | 0          | 0          | 0          |   0.0 |  0.00
Comm    | 7.0572e-05 | 7.0572e-05 | 7.0572e-05 |   0.0 |  0.06
Output  | 0          | 0          | 0          |   0.0 |  0.00
Modify  | 2.0266e-05 | 2.0266e-05 | 2.0266e-05 |   0.0 |  0.02
Other   |            | 0.0001414  |            |       |  0.12

Nlocal:        112.000 ave         112 max         112 min
Histogram: 1 0 0 0 0 0 0 0 0 0
Nghost:        773.000 ave         773 max         773 min
Histogram: 1 0 0 0 0 0 0 0 0 0
Neighs:         0.00000 ave           0 max           0 min
Histogram: 1 0 0 0 0 0 0 0 0 0
FullNghs:      8368.00 ave        8368 max        8368 min
Histogram: 1 0 0 0 0 0 0 0 0 0

Total # of neighbors = 8368
Ave neighs/atom = 74.714286
Neighbor list builds = 0
Dangerous builds = 0

write_dump      all atom dump.${i}
write_dump      all atom dump.22

print           "${rdisp},${SFE}" append gsfe
0.733333333333333,574.77028668032

unfix           1
unfix           2

next            i
jump            SELF loop

variable        rdisp equal $i/${steps} # the relative displacement
variable        rdisp equal 23/${steps} 
variable        rdisp equal 23/30 

displace_atoms  upper move 0 ${ydisp} 0 units lattice
displace_atoms  upper move 0 0.0333333333333333 0 units lattice
Displacing atoms ...

fix             1 mobile setforce 0. 0. NULL # only allowed to relax in Z direction
fix             2 boundary setforce 0. 0. 0. # boundary is fixed to avoid the surface effect

min_style       cg
minimize        1E-10 1E-10 100000 100000
WARNING: Using 'neigh_modify every 1 delay 0 check yes' setting during minimization (../min.cpp:188)
Per MPI rank memory allocation (min/avg/max) = 4.214 | 4.214 | 4.214 Mbytes
Step Temp E_pair E_mol TotEng Press 
     180            0    -844.6494            0    -844.6494   -11841.181 
     186            0   -844.65315            0   -844.65315   -11831.206 
Loop time of 0.116898 on 1 procs for 6 steps with 112 atoms

116.6% CPU use with 1 MPI tasks x no OpenMP threads

Minimization stats:
  Stopping criterion = energy tolerance
  Energy initial, next-to-last, final = 
     -844.649396716287   -844.65314545658  -844.653145492073
  Force two-norm initial, final = 0.19203272 0.00024038644
  Force max component initial, final = 0.037394790 3.4355348e-05
  Final line search alpha, max atom move = 1.0000000 3.4355348e-05
  Iterations, force evaluations = 6 12

MPI task timing breakdown:
Section |  min time  |  avg time  |  max time  |%varavg| %total
---------------------------------------------------------------
Pair    | 0.11667    | 0.11667    | 0.11667    |   0.0 | 99.81
Neigh   | 0          | 0          | 0          |   0.0 |  0.00
Comm    | 6.3419e-05 | 6.3419e-05 | 6.3419e-05 |   0.0 |  0.05
Output  | 0          | 0          | 0          |   0.0 |  0.00
Modify  | 1.8597e-05 | 1.8597e-05 | 1.8597e-05 |   0.0 |  0.02
Other   |            | 0.0001438  |            |       |  0.12

Nlocal:        112.000 ave         112 max         112 min
Histogram: 1 0 0 0 0 0 0 0 0 0
Nghost:        778.000 ave         778 max         778 min
Histogram: 1 0 0 0 0 0 0 0 0 0
Neighs:         0.00000 ave           0 max           0 min
Histogram: 1 0 0 0 0 0 0 0 0 0
FullNghs:      8352.00 ave        8352 max        8352 min
Histogram: 1 0 0 0 0 0 0 0 0 0

Total # of neighbors = 8352
Ave neighs/atom = 74.571429
Neighbor list builds = 0
Dangerous builds = 0

write_dump      all atom dump.${i}
write_dump      all atom dump.23

print           "${rdisp},${SFE}" append gsfe
0.766666666666667,597.027616121266

unfix           1
unfix           2

next            i
jump            SELF loop

variable        rdisp equal $i/${steps} # the relative displacement
variable        rdisp equal 24/${steps} 
variable        rdisp equal 24/30 

displace_atoms  upper move 0 ${ydisp} 0 units lattice
displace_atoms  upper move 0 0.0333333333333333 0 units lattice
Displacing atoms ...

fix             1 mobile setforce 0. 0. NULL # only allowed to relax in Z direction
fix             2 boundary setforce 0. 0. 0. # boundary is fixed to avoid the surface effect

min_style       cg
minimize        1E-10 1E-10 100000 100000
WARNING: Using 'neigh_modify every 1 delay 0 check yes' setting during minimization (../min.cpp:188)
Per MPI rank memory allocation (min/avg/max) = 4.214 | 4.214 | 4.214 Mbytes
Step Temp E_pair E_mol TotEng Press 
     186            0   -844.70283            0   -844.70283   -12127.114 
     192            0   -844.71237            0   -844.71237   -12110.528 
Loop time of 0.117169 on 1 procs for 6 steps with 112 atoms

116.1% CPU use with 1 MPI tasks x no OpenMP threads

Minimization stats:
  Stopping criterion = energy tolerance
  Energy initial, next-to-last, final = 
     -844.702833884783  -844.712367388698   -844.71236742745
  Force two-norm initial, final = 0.28280196 0.00017842056
  Force max component initial, final = 0.061755435 3.5251099e-05
  Final line search alpha, max atom move = 1.0000000 3.5251099e-05
  Iterations, force evaluations = 6 12

MPI task timing breakdown:
Section |  min time  |  avg time  |  max time  |%varavg| %total
---------------------------------------------------------------
Pair    | 0.11695    | 0.11695    | 0.11695    |   0.0 | 99.82
Neigh   | 0          | 0          | 0          |   0.0 |  0.00
Comm    | 6.2943e-05 | 6.2943e-05 | 6.2943e-05 |   0.0 |  0.05
Output  | 0          | 0          | 0          |   0.0 |  0.00
Modify  | 1.8835e-05 | 1.8835e-05 | 1.8835e-05 |   0.0 |  0.02
Other   |            | 0.0001345  |            |       |  0.11

Nlocal:        112.000 ave         112 max         112 min
Histogram: 1 0 0 0 0 0 0 0 0 0
Nghost:        773.000 ave         773 max         773 min
Histogram: 1 0 0 0 0 0 0 0 0 0
Neighs:         0.00000 ave           0 max           0 min
Histogram: 1 0 0 0 0 0 0 0 0 0
FullNghs:      8352.00 ave        8352 max        8352 min
Histogram: 1 0 0 0 0 0 0 0 0 0

Total # of neighbors = 8352
Ave neighs/atom = 74.571429
Neighbor list builds = 0
Dangerous builds = 0

write_dump      all atom dump.${i}
write_dump      all atom dump.24

print           "${rdisp},${SFE}" append gsfe
0.8,588.535110985051

unfix           1
unfix           2

next            i
jump            SELF loop

variable        rdisp equal $i/${steps} # the relative displacement
variable        rdisp equal 25/${steps} 
variable        rdisp equal 25/30 

displace_atoms  upper move 0 ${ydisp} 0 units lattice
displace_atoms  upper move 0 0.0333333333333333 0 units lattice
Displacing atoms ...

fix             1 mobile setforce 0. 0. NULL # only allowed to relax in Z direction
fix             2 boundary setforce 0. 0. 0. # boundary is fixed to avoid the surface effect

min_style       cg
minimize        1E-10 1E-10 100000 100000
WARNING: Using 'neigh_modify every 1 delay 0 check yes' setting during minimization (../min.cpp:188)
Per MPI rank memory allocation (min/avg/max) = 4.214 | 4.214 | 4.214 Mbytes
Step Temp E_pair E_mol TotEng Press 
     192            0   -845.01915            0   -845.01915   -12460.828 
     198            0    -845.0364            0    -845.0364   -12552.473 
Loop time of 0.117116 on 1 procs for 6 steps with 112 atoms

115.5% CPU use with 1 MPI tasks x no OpenMP threads

Minimization stats:
  Stopping criterion = energy tolerance
  Energy initial, next-to-last, final = 
     -845.019151272409    -845.0363982047   -845.03639821513
  Force two-norm initial, final = 0.37065941 7.0068395e-05
  Force max component initial, final = 0.083943573 1.5214475e-05
  Final line search alpha, max atom move = 1.0000000 1.5214475e-05
  Iterations, force evaluations = 6 12

MPI task timing breakdown:
Section |  min time  |  avg time  |  max time  |%varavg| %total
---------------------------------------------------------------
Pair    | 0.11688    | 0.11688    | 0.11688    |   0.0 | 99.80
Neigh   | 0          | 0          | 0          |   0.0 |  0.00
Comm    | 6.7472e-05 | 6.7472e-05 | 6.7472e-05 |   0.0 |  0.06
Output  | 0          | 0          | 0          |   0.0 |  0.00
Modify  | 1.8835e-05 | 1.8835e-05 | 1.8835e-05 |   0.0 |  0.02
Other   |            | 0.0001478  |            |       |  0.13

Nlocal:        112.000 ave         112 max         112 min
Histogram: 1 0 0 0 0 0 0 0 0 0
Nghost:        774.000 ave         774 max         774 min
Histogram: 1 0 0 0 0 0 0 0 0 0
Neighs:         0.00000 ave           0 max           0 min
Histogram: 1 0 0 0 0 0 0 0 0 0
FullNghs:      8288.00 ave        8288 max        8288 min
Histogram: 1 0 0 0 0 0 0 0 0 0

Total # of neighbors = 8288
Ave neighs/atom = 74.000000
Neighbor list builds = 0
Dangerous builds = 0

write_dump      all atom dump.${i}
write_dump      all atom dump.25

print           "${rdisp},${SFE}" append gsfe
0.833333333333333,542.06866048634

unfix           1
unfix           2

next            i
jump            SELF loop

variable        rdisp equal $i/${steps} # the relative displacement
variable        rdisp equal 26/${steps} 
variable        rdisp equal 26/30 

displace_atoms  upper move 0 ${ydisp} 0 units lattice
displace_atoms  upper move 0 0.0333333333333333 0 units lattice
Displacing atoms ...

fix             1 mobile setforce 0. 0. NULL # only allowed to relax in Z direction
fix             2 boundary setforce 0. 0. 0. # boundary is fixed to avoid the surface effect

min_style       cg
minimize        1E-10 1E-10 100000 100000
WARNING: Using 'neigh_modify every 1 delay 0 check yes' setting during minimization (../min.cpp:188)
Per MPI rank memory allocation (min/avg/max) = 4.214 | 4.214 | 4.214 Mbytes
Step Temp E_pair E_mol TotEng Press 
     198            0   -845.60441            0   -845.60441   -13361.752 
     205            0    -845.6595            0    -845.6595    -13487.78 
Loop time of 0.135195 on 1 procs for 7 steps with 112 atoms

113.3% CPU use with 1 MPI tasks x no OpenMP threads

Minimization stats:
  Stopping criterion = energy tolerance
  Energy initial, next-to-last, final = 
     -845.604411127958  -845.659499554398  -845.659499584276
  Force two-norm initial, final = 0.64478917 0.00028838975
  Force max component initial, final = 0.12126634 6.2838382e-05
  Final line search alpha, max atom move = 1.0000000 6.2838382e-05
  Iterations, force evaluations = 7 14

MPI task timing breakdown:
Section |  min time  |  avg time  |  max time  |%varavg| %total
---------------------------------------------------------------
Pair    | 0.13493    | 0.13493    | 0.13493    |   0.0 | 99.80
Neigh   | 0          | 0          | 0          |   0.0 |  0.00
Comm    | 7.6294e-05 | 7.6294e-05 | 7.6294e-05 |   0.0 |  0.06
Output  | 0          | 0          | 0          |   0.0 |  0.00
Modify  | 2.1935e-05 | 2.1935e-05 | 2.1935e-05 |   0.0 |  0.02
Other   |            | 0.0001702  |            |       |  0.13

Nlocal:        112.000 ave         112 max         112 min
Histogram: 1 0 0 0 0 0 0 0 0 0
Nghost:        774.000 ave         774 max         774 min
Histogram: 1 0 0 0 0 0 0 0 0 0
Neighs:         0.00000 ave           0 max           0 min
Histogram: 1 0 0 0 0 0 0 0 0 0
FullNghs:      8384.00 ave        8384 max        8384 min
Histogram: 1 0 0 0 0 0 0 0 0 0

Total # of neighbors = 8384
Ave neighs/atom = 74.857143
Neighbor list builds = 0
Dangerous builds = 0

write_dump      all atom dump.${i}
write_dump      all atom dump.26

print           "${rdisp},${SFE}" append gsfe
0.866666666666667,452.715086610207

unfix           1
unfix           2

next            i
jump            SELF loop

variable        rdisp equal $i/${steps} # the relative displacement
variable        rdisp equal 27/${steps} 
variable        rdisp equal 27/30 

displace_atoms  upper move 0 ${ydisp} 0 units lattice
displace_atoms  upper move 0 0.0333333333333333 0 units lattice
Displacing atoms ...

fix             1 mobile setforce 0. 0. NULL # only allowed to relax in Z direction
fix             2 boundary setforce 0. 0. 0. # boundary is fixed to avoid the surface effect

min_style       cg
minimize        1E-10 1E-10 100000 100000
WARNING: Using 'neigh_modify every 1 delay 0 check yes' setting during minimization (../min.cpp:188)
Per MPI rank memory allocation (min/avg/max) = 4.214 | 4.214 | 4.214 Mbytes
Step Temp E_pair E_mol TotEng Press 
     205            0   -846.49354            0   -846.49354   -14065.299 
     212            0   -846.57203            0   -846.57203   -14196.002 
Loop time of 0.137261 on 1 procs for 7 steps with 112 atoms

117.1% CPU use with 1 MPI tasks x no OpenMP threads

Minimization stats:
  Stopping criterion = energy tolerance
  Energy initial, next-to-last, final = 
     -846.493537324791  -846.572029671739   -846.57202967452
  Force two-norm initial, final = 0.83089163 7.5169912e-05
  Force max component initial, final = 0.16681767 1.7564091e-05
  Final line search alpha, max atom move = 1.0000000 1.7564091e-05
  Iterations, force evaluations = 7 14

MPI task timing breakdown:
Section |  min time  |  avg time  |  max time  |%varavg| %total
---------------------------------------------------------------
Pair    | 0.13698    | 0.13698    | 0.13698    |   0.0 | 99.79
Neigh   | 0          | 0          | 0          |   0.0 |  0.00
Comm    | 8.0347e-05 | 8.0347e-05 | 8.0347e-05 |   0.0 |  0.06
Output  | 0          | 0          | 0          |   0.0 |  0.00
Modify  | 2.3365e-05 | 2.3365e-05 | 2.3365e-05 |   0.0 |  0.02
Other   |            | 0.0001814  |            |       |  0.13

Nlocal:        112.000 ave         112 max         112 min
Histogram: 1 0 0 0 0 0 0 0 0 0
Nghost:        778.000 ave         778 max         778 min
Histogram: 1 0 0 0 0 0 0 0 0 0
Neighs:         0.00000 ave           0 max           0 min
Histogram: 1 0 0 0 0 0 0 0 0 0
FullNghs:      8512.00 ave        8512 max        8512 min
Histogram: 1 0 0 0 0 0 0 0 0 0

Total # of neighbors = 8512
Ave neighs/atom = 76.000000
Neighbor list builds = 0
Dangerous builds = 0

write_dump      all atom dump.${i}
write_dump      all atom dump.27

print           "${rdisp},${SFE}" append gsfe
0.9,321.857045093498

unfix           1
unfix           2

next            i
jump            SELF loop

variable        rdisp equal $i/${steps} # the relative displacement
variable        rdisp equal 28/${steps} 
variable        rdisp equal 28/30 

displace_atoms  upper move 0 ${ydisp} 0 units lattice
displace_atoms  upper move 0 0.0333333333333333 0 units lattice
Displacing atoms ...

fix             1 mobile setforce 0. 0. NULL # only allowed to relax in Z direction
fix             2 boundary setforce 0. 0. 0. # boundary is fixed to avoid the surface effect

min_style       cg
minimize        1E-10 1E-10 100000 100000
WARNING: Using 'neigh_modify every 1 delay 0 check yes' setting during minimization (../min.cpp:188)
Per MPI rank memory allocation (min/avg/max) = 4.214 | 4.214 | 4.214 Mbytes
Step Temp E_pair E_mol TotEng Press 
     212            0   -847.59092            0   -847.59092   -14375.039 
     219            0   -847.67287            0   -847.67287    -14437.51 
Loop time of 0.135387 on 1 procs for 7 steps with 112 atoms

109.9% CPU use with 1 MPI tasks x no OpenMP threads

Minimization stats:
  Stopping criterion = energy tolerance
  Energy initial, next-to-last, final = 
     -847.590921901698  -847.672874951861  -847.672874973098
  Force two-norm initial, final = 0.88574846 0.00016896513
  Force max component initial, final = 0.18983060 2.5676752e-05
  Final line search alpha, max atom move = 1.0000000 2.5676752e-05
  Iterations, force evaluations = 7 14

MPI task timing breakdown:
Section |  min time  |  avg time  |  max time  |%varavg| %total
---------------------------------------------------------------
Pair    | 0.13512    | 0.13512    | 0.13512    |   0.0 | 99.80
Neigh   | 0          | 0          | 0          |   0.0 |  0.00
Comm    | 7.4863e-05 | 7.4863e-05 | 7.4863e-05 |   0.0 |  0.06
Output  | 0          | 0          | 0          |   0.0 |  0.00
Modify  | 2.1696e-05 | 2.1696e-05 | 2.1696e-05 |   0.0 |  0.02
Other   |            | 0.0001695  |            |       |  0.13

Nlocal:        112.000 ave         112 max         112 min
Histogram: 1 0 0 0 0 0 0 0 0 0
Nghost:        773.000 ave         773 max         773 min
Histogram: 1 0 0 0 0 0 0 0 0 0
Neighs:         0.00000 ave           0 max           0 min
Histogram: 1 0 0 0 0 0 0 0 0 0
FullNghs:      8512.00 ave        8512 max        8512 min
Histogram: 1 0 0 0 0 0 0 0 0 0

Total # of neighbors = 8512
Ave neighs/atom = 76.000000
Neighbor list builds = 0
Dangerous builds = 0

write_dump      all atom dump.${i}
write_dump      all atom dump.28

print           "${rdisp},${SFE}" append gsfe
0.933333333333333,163.994349578177

unfix           1
unfix           2

next            i
jump            SELF loop

variable        rdisp equal $i/${steps} # the relative displacement
variable        rdisp equal 29/${steps} 
variable        rdisp equal 29/30 

displace_atoms  upper move 0 ${ydisp} 0 units lattice
displace_atoms  upper move 0 0.0333333333333333 0 units lattice
Displacing atoms ...

fix             1 mobile setforce 0. 0. NULL # only allowed to relax in Z direction
fix             2 boundary setforce 0. 0. 0. # boundary is fixed to avoid the surface effect

min_style       cg
minimize        1E-10 1E-10 100000 100000
WARNING: Using 'neigh_modify every 1 delay 0 check yes' setting during minimization (../min.cpp:188)
Per MPI rank memory allocation (min/avg/max) = 4.214 | 4.214 | 4.214 Mbytes
Step Temp E_pair E_mol TotEng Press 
     219            0   -848.51753            0   -848.51753   -14553.163 
     225            0   -848.54153            0   -848.54153   -14520.931 
Loop time of 0.116667 on 1 procs for 6 steps with 112 atoms

108.1% CPU use with 1 MPI tasks x no OpenMP threads

Minimization stats:
  Stopping criterion = energy tolerance
  Energy initial, next-to-last, final = 
     -848.517534432051  -848.541531003113  -848.541531054402
  Force two-norm initial, final = 0.50459082 9.7407693e-05
  Force max component initial, final = 0.11139871 1.4136778e-05
  Final line search alpha, max atom move = 1.0000000 1.4136778e-05
  Iterations, force evaluations = 6 12

MPI task timing breakdown:
Section |  min time  |  avg time  |  max time  |%varavg| %total
---------------------------------------------------------------
Pair    | 0.11644    | 0.11644    | 0.11644    |   0.0 | 99.81
Neigh   | 0          | 0          | 0          |   0.0 |  0.00
Comm    | 6.3658e-05 | 6.3658e-05 | 6.3658e-05 |   0.0 |  0.05
Output  | 0          | 0          | 0          |   0.0 |  0.00
Modify  | 1.8358e-05 | 1.8358e-05 | 1.8358e-05 |   0.0 |  0.02
Other   |            | 0.0001411  |            |       |  0.12

Nlocal:        112.000 ave         112 max         112 min
Histogram: 1 0 0 0 0 0 0 0 0 0
Nghost:        773.000 ave         773 max         773 min
Histogram: 1 0 0 0 0 0 0 0 0 0
Neighs:         0.00000 ave           0 max           0 min
Histogram: 1 0 0 0 0 0 0 0 0 0
FullNghs:      8528.00 ave        8528 max        8528 min
Histogram: 1 0 0 0 0 0 0 0 0 0

Total # of neighbors = 8528
Ave neighs/atom = 76.142857
Neighbor list builds = 0
Dangerous builds = 0

write_dump      all atom dump.${i}
write_dump      all atom dump.29

print           "${rdisp},${SFE}" append gsfe
0.966666666666667,39.4278999166437

unfix           1
unfix           2

next            i
jump            SELF loop

variable        rdisp equal $i/${steps} # the relative displacement
variable        rdisp equal 30/${steps} 
variable        rdisp equal 30/30 

displace_atoms  upper move 0 ${ydisp} 0 units lattice
displace_atoms  upper move 0 0.0333333333333333 0 units lattice
Displacing atoms ...

fix             1 mobile setforce 0. 0. NULL # only allowed to relax in Z direction
fix             2 boundary setforce 0. 0. 0. # boundary is fixed to avoid the surface effect

min_style       cg
minimize        1E-10 1E-10 100000 100000
WARNING: Using 'neigh_modify every 1 delay 0 check yes' setting during minimization (../min.cpp:188)
Per MPI rank memory allocation (min/avg/max) = 4.214 | 4.214 | 4.214 Mbytes
Step Temp E_pair E_mol TotEng Press 
     225            0   -848.81457            0   -848.81457   -14582.423 
     230            0   -848.81648            0   -848.81648   -14566.475 
Loop time of 0.0988233 on 1 procs for 5 steps with 112 atoms

116.9% CPU use with 1 MPI tasks x no OpenMP threads

Minimization stats:
  Stopping criterion = energy tolerance
  Energy initial, next-to-last, final = 
     -848.814567391589  -848.816478920468  -848.816478967667
  Force two-norm initial, final = 0.12821545 0.00027383893
  Force max component initial, final = 0.026138382 3.5515937e-05
  Final line search alpha, max atom move = 1.0000000 3.5515937e-05
  Iterations, force evaluations = 5 10

MPI task timing breakdown:
Section |  min time  |  avg time  |  max time  |%varavg| %total
---------------------------------------------------------------
Pair    | 0.098621   | 0.098621   | 0.098621   |   0.0 | 99.80
Neigh   | 0          | 0          | 0          |   0.0 |  0.00
Comm    | 5.579e-05  | 5.579e-05  | 5.579e-05  |   0.0 |  0.06
Output  | 0          | 0          | 0          |   0.0 |  0.00
Modify  | 1.5974e-05 | 1.5974e-05 | 1.5974e-05 |   0.0 |  0.02
Other   |            | 0.0001304  |            |       |  0.13

Nlocal:        112.000 ave         112 max         112 min
Histogram: 1 0 0 0 0 0 0 0 0 0
Nghost:        773.000 ave         773 max         773 min
Histogram: 1 0 0 0 0 0 0 0 0 0
Neighs:         0.00000 ave           0 max           0 min
Histogram: 1 0 0 0 0 0 0 0 0 0
FullNghs:      8672.00 ave        8672 max        8672 min
Histogram: 1 0 0 0 0 0 0 0 0 0

Total # of neighbors = 8672
Ave neighs/atom = 77.428571
Neighbor list builds = 0
Dangerous builds = 0

write_dump      all atom dump.${i}
write_dump      all atom dump.30

print           "${rdisp},${SFE}" append gsfe
1,-4.16293155788599e-07

unfix           1
unfix           2

next            i
jump            SELF loop
Total wall time: 0:00:09
