LAMMPS data file via write_data, version 20 Nov 2019, timestep = 0

317 atoms
1 atom types

0.0000000000000000e+00 2.8284271247461898e+00 xlo xhi
0.0000000000000000e+00 3.4641016151377553e+00 ylo yhi
0.0000000000000000e+00 3.1329931618554522e+01 zlo zhi

Masses

1 47.867

Atoms # atomic

1 1 1.4142135623730949e+00 2.5980762113533160e+00 0.0000000000000000e+00 0 0 0
2 1 2.1213203435596419e+00 3.1754264805429422e+00 4.0824829046386313e-01 0 0 0
3 1 0.0000000000000000e+00 2.5980762113533165e+00 0.0000000000000000e+00 0 0 0
4 1 7.0710678118654746e-01 3.1754264805429422e+00 4.0824829046386291e-01 0 0 0
5 1 2.1213203435596424e+00 1.4433756729740645e+00 4.0824829046386296e-01 0 0 0
6 1 0.0000000000000000e+00 8.6602540378443882e-01 0.0000000000000000e+00 0 0 0
7 1 7.0710678118654746e-01 1.4433756729740645e+00 4.0824829046386307e-01 0 0 0
8 1 1.4142135623730949e+00 1.7320508075688776e+00 0.0000000000000000e+00 0 0 0
9 1 1.4142135623730949e+00 2.0207259421636903e+00 8.1649658092772603e-01 0 0 0
10 1 2.1213203435596424e+00 2.3094010767585034e+00 4.0824829046386302e-01 0 0 0
11 1 2.1213203435596419e+00 2.5980762113533165e+00 1.2247448713915892e+00 0 0 0
12 1 0.0000000000000000e+00 1.7320508075688776e+00 0.0000000000000000e+00 0 0 0
13 1 0.0000000000000000e+00 2.0207259421636907e+00 8.1649658092772603e-01 0 0 0
14 1 7.0710678118654746e-01 2.3094010767585034e+00 4.0824829046386302e-01 0 0 0
15 1 7.0710678118654746e-01 2.5980762113533165e+00 1.2247448713915889e+00 0 0 0
16 1 1.4142135623730949e+00 2.8867513459481291e+00 8.1649658092772615e-01 0 0 0
17 1 1.4142135623730947e+00 3.1754264805429422e+00 1.6329931618554521e+00 0 0 0
18 1 0.0000000000000000e+00 2.8867513459481291e+00 8.1649658092772615e-01 0 0 0
19 1 0.0000000000000000e+00 3.1754264805429422e+00 1.6329931618554521e+00 0 0 0
20 1 1.4142135623730949e+00 0.0000000000000000e+00 0.0000000000000000e+00 0 0 0
21 1 1.4142135623730949e+00 2.8867513459481303e-01 8.1649658092772603e-01 0 0 0
22 1 2.1213203435596424e+00 5.7735026918962584e-01 4.0824829046386307e-01 0 0 0
23 1 2.1213203435596424e+00 8.6602540378443882e-01 1.2247448713915892e+00 0 0 0
24 1 0.0000000000000000e+00 0.0000000000000000e+00 0.0000000000000000e+00 0 0 0
25 1 0.0000000000000000e+00 2.8867513459481292e-01 8.1649658092772615e-01 0 0 0
26 1 7.0710678118654746e-01 5.7735026918962584e-01 4.0824829046386307e-01 0 0 0
27 1 7.0710678118654746e-01 8.6602540378443882e-01 1.2247448713915892e+00 0 0 0
28 1 1.4142135623730949e+00 1.1547005383792517e+00 8.1649658092772615e-01 0 0 0
29 1 1.4142135623730949e+00 1.4433756729740645e+00 1.6329931618554523e+00 0 0 0
30 1 2.1213203435596424e+00 1.7320508075688776e+00 1.2247448713915892e+00 0 0 0
31 1 2.1213203435596419e+00 2.0207259421636903e+00 2.0412414523193152e+00 0 0 0
32 1 0.0000000000000000e+00 1.1547005383792517e+00 8.1649658092772615e-01 0 0 0
33 1 0.0000000000000000e+00 1.4433756729740648e+00 1.6329931618554523e+00 0 0 0
34 1 7.0710678118654746e-01 1.7320508075688776e+00 1.2247448713915892e+00 0 0 0
35 1 7.0710678118654746e-01 2.0207259421636903e+00 2.0412414523193152e+00 0 0 0
36 1 1.4142135623730949e+00 2.3094010767585034e+00 1.6329931618554523e+00 0 0 0
37 1 1.4142135623730947e+00 2.5980762113533160e+00 2.4494897427831783e+00 0 0 0
38 1 2.1213203435596424e+00 2.8867513459481291e+00 2.0412414523193152e+00 0 0 0
39 1 2.1213203435596428e+00 3.1754264805429422e+00 2.8577380332470415e+00 0 0 0
40 1 0.0000000000000000e+00 2.3094010767585034e+00 1.6329931618554523e+00 0 0 0
41 1 0.0000000000000000e+00 2.5980762113533160e+00 2.4494897427831783e+00 0 0 0
42 1 7.0710678118654746e-01 2.8867513459481291e+00 2.0412414523193152e+00 0 0 0
43 1 7.0710678118654724e-01 3.1754264805429417e+00 2.8577380332470415e+00 0 0 0
44 1 2.1213203435596424e+00 0.0000000000000000e+00 1.2247448713915892e+00 0 0 0
45 1 2.1213203435596424e+00 2.8867513459481287e-01 2.0412414523193152e+00 0 0 0
46 1 7.0710678118654746e-01 0.0000000000000000e+00 1.2247448713915892e+00 0 0 0
47 1 7.0710678118654746e-01 2.8867513459481287e-01 2.0412414523193152e+00 0 0 0
48 1 1.4142135623730949e+00 5.7735026918962584e-01 1.6329931618554523e+00 0 0 0
49 1 1.4142135623730949e+00 8.6602540378443860e-01 2.4494897427831783e+00 0 0 0
50 1 2.1213203435596424e+00 1.1547005383792519e+00 2.0412414523193152e+00 0 0 0
51 1 2.1213203435596419e+00 1.4433756729740645e+00 2.8577380332470415e+00 0 0 0
52 1 0.0000000000000000e+00 5.7735026918962584e-01 1.6329931618554523e+00 0 0 0
53 1 0.0000000000000000e+00 8.6602540378443882e-01 2.4494897427831783e+00 0 0 0
54 1 7.0710678118654746e-01 1.1547005383792519e+00 2.0412414523193152e+00 0 0 0
55 1 7.0710678118654746e-01 1.4433756729740645e+00 2.8577380332470410e+00 0 0 0
56 1 1.4142135623730949e+00 1.7320508075688776e+00 2.4494897427831783e+00 0 0 0
57 1 1.4142135623730947e+00 2.0207259421636903e+00 3.2659863237109041e+00 0 0 0
58 1 2.1213203435596424e+00 2.3094010767585034e+00 2.8577380332470415e+00 0 0 0
59 1 2.1213203435596428e+00 2.5980762113533165e+00 3.6742346141747673e+00 0 0 0
60 1 0.0000000000000000e+00 1.7320508075688776e+00 2.4494897427831783e+00 0 0 0
61 1 0.0000000000000000e+00 2.0207259421636903e+00 3.2659863237109041e+00 0 0 0
62 1 7.0710678118654746e-01 2.3094010767585034e+00 2.8577380332470415e+00 0 0 0
63 1 7.0710678118654724e-01 2.5980762113533160e+00 3.6742346141747673e+00 0 0 0
64 1 1.4142135623730949e+00 2.8867513459481295e+00 3.2659863237109046e+00 0 0 0
65 1 1.4142135623730951e+00 3.1754264805429426e+00 4.0824829046386304e+00 0 0 0
66 1 0.0000000000000000e+00 2.8867513459481295e+00 3.2659863237109046e+00 0 0 0
67 1 0.0000000000000000e+00 3.1754264805429417e+00 4.0824829046386304e+00 0 0 0
68 1 1.4142135623730949e+00 0.0000000000000000e+00 2.4494897427831783e+00 0 0 0
69 1 1.4142135623730949e+00 2.8867513459481287e-01 3.2659863237109041e+00 0 0 0
70 1 2.1213203435596424e+00 5.7735026918962595e-01 2.8577380332470415e+00 0 0 0
71 1 2.1213203435596419e+00 8.6602540378443882e-01 3.6742346141747673e+00 0 0 0
72 1 0.0000000000000000e+00 0.0000000000000000e+00 2.4494897427831783e+00 0 0 0
73 1 0.0000000000000000e+00 2.8867513459481309e-01 3.2659863237109041e+00 0 0 0
74 1 7.0710678118654746e-01 5.7735026918962595e-01 2.8577380332470415e+00 0 0 0
75 1 7.0710678118654746e-01 8.6602540378443882e-01 3.6742346141747673e+00 0 0 0
76 1 1.4142135623730949e+00 1.1547005383792517e+00 3.2659863237109046e+00 0 0 0
77 1 1.4142135623730947e+00 1.4433756729740645e+00 4.0824829046386304e+00 0 0 0
78 1 2.1213203435596424e+00 1.7320508075688774e+00 3.6742346141747673e+00 0 0 0
79 1 2.1213203435596428e+00 2.0207259421636907e+00 4.4907311951024935e+00 0 0 0
80 1 0.0000000000000000e+00 1.1547005383792517e+00 3.2659863237109046e+00 0 0 0
81 1 0.0000000000000000e+00 1.4433756729740645e+00 4.0824829046386304e+00 0 0 0
82 1 7.0710678118654746e-01 1.7320508075688774e+00 3.6742346141747673e+00 0 0 0
83 1 7.0710678118654724e-01 2.0207259421636903e+00 4.4907311951024935e+00 0 0 0
84 1 1.4142135623730949e+00 2.3094010767585038e+00 4.0824829046386304e+00 0 0 0
85 1 1.4142135623730951e+00 2.5980762113533169e+00 4.8989794855663567e+00 0 0 0
86 1 2.1213203435596424e+00 2.8867513459481291e+00 4.4907311951024935e+00 0 0 0
87 1 2.1213203435596419e+00 3.1754264805429422e+00 5.3072277760302189e+00 0 0 0
88 1 0.0000000000000000e+00 2.3094010767585038e+00 4.0824829046386304e+00 0 0 0
89 1 0.0000000000000000e+00 2.5980762113533160e+00 4.8989794855663567e+00 0 0 0
90 1 7.0710678118654746e-01 2.8867513459481300e+00 4.4907311951024935e+00 0 0 0
91 1 7.0710678118654791e-01 3.1754264805429422e+00 5.3072277760302198e+00 0 0 0
92 1 2.1213203435596424e+00 0.0000000000000000e+00 3.6742346141747673e+00 0 0 0
93 1 2.1213203435596419e+00 2.8867513459481309e-01 4.4907311951024935e+00 0 0 0
94 1 7.0710678118654746e-01 0.0000000000000000e+00 3.6742346141747673e+00 0 0 0
95 1 7.0710678118654746e-01 2.8867513459481309e-01 4.4907311951024935e+00 0 0 0
96 1 1.4142135623730949e+00 5.7735026918962573e-01 4.0824829046386304e+00 0 0 0
97 1 1.4142135623730947e+00 8.6602540378443882e-01 4.8989794855663567e+00 0 0 0
98 1 2.1213203435596424e+00 1.1547005383792515e+00 4.4907311951024935e+00 0 0 0
99 1 2.1213203435596428e+00 1.4433756729740650e+00 5.3072277760302198e+00 0 0 0
100 1 0.0000000000000000e+00 5.7735026918962573e-01 4.0824829046386304e+00 0 0 0
101 1 0.0000000000000000e+00 8.6602540378443882e-01 4.8989794855663567e+00 0 0 0
102 1 7.0710678118654746e-01 1.1547005383792515e+00 4.4907311951024935e+00 0 0 0
103 1 7.0710678118654724e-01 1.4433756729740645e+00 5.3072277760302198e+00 0 0 0
104 1 1.4142135623730949e+00 1.7320508075688776e+00 4.8989794855663567e+00 0 0 0
105 1 1.4142135623730951e+00 2.0207259421636912e+00 5.7154760664940829e+00 0 0 0
106 1 2.1213203435596424e+00 2.3094010767585029e+00 5.3072277760302198e+00 0 0 0
107 1 2.1213203435596419e+00 2.5980762113533165e+00 6.1237243569579451e+00 0 0 0
108 1 0.0000000000000000e+00 1.7320508075688776e+00 4.8989794855663567e+00 0 0 0
109 1 0.0000000000000000e+00 2.0207259421636903e+00 5.7154760664940829e+00 0 0 0
110 1 7.0710678118654746e-01 2.3094010767585038e+00 5.3072277760302198e+00 0 0 0
111 1 7.0710678118654791e-01 2.5980762113533165e+00 6.1237243569579460e+00 0 0 0
112 1 1.4142135623730949e+00 2.8867513459481291e+00 5.7154760664940820e+00 0 0 0
113 1 1.4142135623730949e+00 3.1754264805429417e+00 6.5319726474218083e+00 0 0 0
114 1 0.0000000000000000e+00 2.8867513459481291e+00 5.7154760664940829e+00 0 0 0
115 1 0.0000000000000000e+00 3.1754264805429426e+00 6.5319726474218092e+00 0 0 0
116 1 1.4142135623730949e+00 0.0000000000000000e+00 4.8989794855663567e+00 0 0 0
117 1 1.4142135623730947e+00 2.8867513459481264e-01 5.7154760664940829e+00 0 0 0
118 1 2.1213203435596424e+00 5.7735026918962573e-01 5.3072277760302198e+00 0 0 0
119 1 2.1213203435596428e+00 8.6602540378443882e-01 6.1237243569579460e+00 0 0 0
120 1 0.0000000000000000e+00 0.0000000000000000e+00 4.8989794855663567e+00 0 0 0
121 1 0.0000000000000000e+00 2.8867513459481264e-01 5.7154760664940829e+00 0 0 0
122 1 7.0710678118654746e-01 5.7735026918962573e-01 5.3072277760302198e+00 0 0 0
123 1 7.0710678118654724e-01 8.6602540378443837e-01 6.1237243569579460e+00 0 0 0
124 1 1.4142135623730949e+00 1.1547005383792519e+00 5.7154760664940829e+00 0 0 0
125 1 1.4142135623730951e+00 1.4433756729740650e+00 6.5319726474218092e+00 0 0 0
126 1 2.1213203435596424e+00 1.7320508075688772e+00 6.1237243569579460e+00 0 0 0
127 1 2.1213203435596419e+00 2.0207259421636903e+00 6.9402209378856714e+00 0 0 0
128 1 0.0000000000000000e+00 1.1547005383792519e+00 5.7154760664940829e+00 0 0 0
129 1 0.0000000000000000e+00 1.4433756729740641e+00 6.5319726474218092e+00 0 0 0
130 1 7.0710678118654746e-01 1.7320508075688781e+00 6.1237243569579460e+00 0 0 0
131 1 7.0710678118654791e-01 2.0207259421636903e+00 6.9402209378856723e+00 0 0 0
132 1 1.4142135623730949e+00 2.3094010767585034e+00 6.5319726474218083e+00 0 0 0
133 1 1.4142135623730949e+00 2.5980762113533156e+00 7.3484692283495345e+00 0 0 0
134 1 2.1213203435596424e+00 2.8867513459481295e+00 6.9402209378856714e+00 0 0 0
135 1 2.1213203435596428e+00 3.1754264805429417e+00 7.7567175188133977e+00 0 0 0
136 1 0.0000000000000000e+00 2.3094010767585034e+00 6.5319726474218092e+00 0 0 0
137 1 0.0000000000000000e+00 2.5980762113533165e+00 7.3484692283495354e+00 0 0 0
138 1 7.0710678118654746e-01 2.8867513459481287e+00 6.9402209378856714e+00 0 0 0
139 1 7.0710678118654702e-01 3.1754264805429417e+00 7.7567175188133977e+00 0 0 0
140 1 2.1213203435596424e+00 0.0000000000000000e+00 6.1237243569579451e+00 0 0 0
141 1 2.1213203435596428e+00 2.8867513459481309e-01 6.9402209378856714e+00 0 0 0
142 1 7.0710678118654746e-01 0.0000000000000000e+00 6.1237243569579451e+00 0 0 0
143 1 7.0710678118654724e-01 2.8867513459481264e-01 6.9402209378856714e+00 0 0 0
144 1 1.4142135623730949e+00 5.7735026918962618e-01 6.5319726474218083e+00 0 0 0
145 1 1.4142135623730951e+00 8.6602540378443926e-01 7.3484692283495345e+00 0 0 0
146 1 2.1213203435596424e+00 1.1547005383792515e+00 6.9402209378856714e+00 0 0 0
147 1 2.1213203435596419e+00 1.4433756729740645e+00 7.7567175188133977e+00 0 0 0
148 1 0.0000000000000000e+00 5.7735026918962618e-01 6.5319726474218083e+00 0 0 0
149 1 0.0000000000000000e+00 8.6602540378443837e-01 7.3484692283495345e+00 0 0 0
150 1 7.0710678118654746e-01 1.1547005383792524e+00 6.9402209378856714e+00 0 0 0
151 1 7.0710678118654791e-01 1.4433756729740645e+00 7.7567175188133977e+00 0 0 0
152 1 1.4142135623730949e+00 1.7320508075688776e+00 7.3484692283495345e+00 0 0 0
153 1 1.4142135623730949e+00 2.0207259421636898e+00 8.1649658092772608e+00 0 0 0
154 1 2.1213203435596424e+00 2.3094010767585038e+00 7.7567175188133977e+00 0 0 0
155 1 2.1213203435596428e+00 2.5980762113533160e+00 8.5732140997411239e+00 0 0 0
156 1 0.0000000000000000e+00 1.7320508075688776e+00 7.3484692283495345e+00 0 0 0
157 1 0.0000000000000000e+00 2.0207259421636907e+00 8.1649658092772608e+00 0 0 0
158 1 7.0710678118654746e-01 2.3094010767585029e+00 7.7567175188133977e+00 0 0 0
159 1 7.0710678118654702e-01 2.5980762113533160e+00 8.5732140997411239e+00 0 0 0
160 1 1.4142135623730949e+00 2.8867513459481291e+00 8.1649658092772608e+00 0 0 0
161 1 1.4142135623730949e+00 3.1754264805429422e+00 8.9814623902049870e+00 0 0 0
162 1 0.0000000000000000e+00 2.8867513459481291e+00 8.1649658092772608e+00 0 0 0
163 1 0.0000000000000000e+00 3.1754264805429422e+00 8.9814623902049870e+00 0 0 0
164 1 1.4142135623730949e+00 0.0000000000000000e+00 7.3484692283495345e+00 0 0 0
165 1 1.4142135623730951e+00 2.8867513459481353e-01 8.1649658092772608e+00 0 0 0
166 1 2.1213203435596424e+00 5.7735026918962529e-01 7.7567175188133977e+00 0 0 0
167 1 2.1213203435596419e+00 8.6602540378443882e-01 8.5732140997411239e+00 0 0 0
168 1 0.0000000000000000e+00 0.0000000000000000e+00 7.3484692283495345e+00 0 0 0
169 1 0.0000000000000000e+00 2.8867513459481264e-01 8.1649658092772608e+00 0 0 0
170 1 7.0710678118654746e-01 5.7735026918962618e-01 7.7567175188133977e+00 0 0 0
171 1 7.0710678118654791e-01 8.6602540378443882e-01 8.5732140997411239e+00 0 0 0
172 1 1.4142135623730949e+00 1.1547005383792515e+00 8.1649658092772608e+00 0 0 0
173 1 1.4142135623730949e+00 1.4433756729740641e+00 8.9814623902049870e+00 0 0 0
174 1 2.1213203435596424e+00 1.7320508075688776e+00 8.5732140997411239e+00 0 0 0
175 1 2.1213203435596428e+00 2.0207259421636903e+00 9.3897106806688502e+00 0 0 0
176 1 0.0000000000000000e+00 1.1547005383792515e+00 8.1649658092772608e+00 0 0 0
177 1 0.0000000000000000e+00 1.4433756729740650e+00 8.9814623902049870e+00 0 0 0
178 1 7.0710678118654746e-01 1.7320508075688767e+00 8.5732140997411239e+00 0 0 0
179 1 7.0710678118654702e-01 2.0207259421636903e+00 9.3897106806688502e+00 0 0 0
180 1 1.4142135623730949e+00 2.3094010767585029e+00 8.9814623902049870e+00 0 0 0
181 1 1.4142135623730949e+00 2.5980762113533165e+00 9.7979589711327133e+00 0 0 0
182 1 2.1213203435596419e+00 2.8867513459481291e+00 9.3897106806688502e+00 0 0 0
183 1 2.1213203435596419e+00 3.1754264805429426e+00 1.0206207261596576e+01 0 0 0
184 1 0.0000000000000000e+00 2.3094010767585029e+00 8.9814623902049870e+00 0 0 0
185 1 0.0000000000000000e+00 2.5980762113533165e+00 9.7979589711327133e+00 0 0 0
186 1 7.0710678118654746e-01 2.8867513459481291e+00 9.3897106806688502e+00 0 0 0
187 1 7.0710678118654791e-01 3.1754264805429426e+00 1.0206207261596576e+01 0 0 0
188 1 2.1213203435596424e+00 0.0000000000000000e+00 8.5732140997411239e+00 0 0 0
189 1 2.1213203435596419e+00 2.8867513459481309e-01 9.3897106806688502e+00 0 0 0
190 1 7.0710678118654746e-01 8.8817841970012523e-16 8.5732140997411239e+00 0 0 0
191 1 7.0710678118654791e-01 2.8867513459481309e-01 9.3897106806688502e+00 0 0 0
192 1 1.4142135623730949e+00 5.7735026918962618e-01 8.9814623902049870e+00 0 0 0
193 1 1.4142135623730949e+00 8.6602540378443837e-01 9.7979589711327133e+00 0 0 0
194 1 2.1213203435596424e+00 1.1547005383792524e+00 9.3897106806688502e+00 0 0 0
195 1 2.1213203435596428e+00 1.4433756729740645e+00 1.0206207261596576e+01 0 0 0
196 1 0.0000000000000000e+00 5.7735026918962618e-01 8.9814623902049870e+00 0 0 0
197 1 0.0000000000000000e+00 8.6602540378443926e-01 9.7979589711327133e+00 0 0 0
198 1 7.0710678118654746e-01 1.1547005383792515e+00 9.3897106806688502e+00 0 0 0
199 1 7.0710678118654702e-01 1.4433756729740645e+00 1.0206207261596576e+01 0 0 0
200 1 1.4142135623730949e+00 1.7320508075688776e+00 9.7979589711327133e+00 0 0 0
201 1 1.4142135623730949e+00 2.0207259421636907e+00 1.0614455552060440e+01 0 0 0
202 1 2.1213203435596419e+00 2.3094010767585038e+00 1.0206207261596576e+01 0 0 0
203 1 2.1213203435596419e+00 2.5980762113533169e+00 1.1022703842524303e+01 0 0 0
204 1 0.0000000000000000e+00 1.7320508075688776e+00 9.7979589711327133e+00 0 0 0
205 1 0.0000000000000000e+00 2.0207259421636907e+00 1.0614455552060440e+01 0 0 0
206 1 7.0710678118654746e-01 2.3094010767585038e+00 1.0206207261596576e+01 0 0 0
207 1 7.0710678118654791e-01 2.5980762113533169e+00 1.1022703842524303e+01 0 0 0
208 1 1.4142135623730945e+00 2.8867513459481291e+00 1.0614455552060440e+01 0 0 0
209 1 1.4142135623730949e+00 3.1754264805429422e+00 1.1430952132988166e+01 0 0 0
210 1 0.0000000000000000e+00 2.8867513459481300e+00 1.0614455552060440e+01 0 0 0
211 1 0.0000000000000000e+00 3.1754264805429422e+00 1.1430952132988166e+01 0 0 0
212 1 1.4142135623730949e+00 0.0000000000000000e+00 9.7979589711327133e+00 0 0 0
213 1 1.4142135623730949e+00 2.8867513459481220e-01 1.0614455552060440e+01 0 0 0
214 1 2.1213203435596424e+00 5.7735026918962618e-01 1.0206207261596576e+01 0 0 0
215 1 2.1213203435596428e+00 8.6602540378443837e-01 1.1022703842524303e+01 0 0 0
216 1 0.0000000000000000e+00 0.0000000000000000e+00 9.7979589711327133e+00 0 0 0
217 1 0.0000000000000000e+00 2.8867513459481309e-01 1.0614455552060440e+01 0 0 0
218 1 7.0710678118654746e-01 5.7735026918962529e-01 1.0206207261596576e+01 0 0 0
219 1 7.0710678118654702e-01 8.6602540378443837e-01 1.1022703842524303e+01 0 0 0
220 1 1.4142135623730949e+00 1.1547005383792515e+00 1.0614455552060440e+01 0 0 0
221 1 1.4142135623730949e+00 1.4433756729740645e+00 1.1430952132988166e+01 0 0 0
222 1 2.1213203435596419e+00 1.7320508075688776e+00 1.1022703842524303e+01 0 0 0
223 1 2.1213203435596419e+00 2.0207259421636907e+00 1.1839200423452029e+01 0 0 0
224 1 0.0000000000000000e+00 1.1547005383792515e+00 1.0614455552060440e+01 0 0 0
225 1 0.0000000000000000e+00 1.4433756729740645e+00 1.1430952132988166e+01 0 0 0
226 1 7.0710678118654746e-01 1.7320508075688776e+00 1.1022703842524303e+01 0 0 0
227 1 7.0710678118654791e-01 2.0207259421636907e+00 1.1839200423452029e+01 0 0 0
228 1 1.4142135623730945e+00 2.3094010767585029e+00 1.1430952132988166e+01 0 0 0
229 1 1.4142135623730949e+00 2.5980762113533160e+00 1.2247448713915892e+01 0 0 0
230 1 2.1213203435596424e+00 2.8867513459481291e+00 1.1839200423452029e+01 0 0 0
231 1 2.1213203435596428e+00 3.1754264805429431e+00 1.2655697004379755e+01 0 0 0
232 1 0.0000000000000000e+00 2.3094010767585038e+00 1.1430952132988166e+01 0 0 0
233 1 0.0000000000000000e+00 2.5980762113533160e+00 1.2247448713915892e+01 0 0 0
234 1 7.0710678118654702e-01 2.8867513459481291e+00 1.1839200423452029e+01 0 0 0
235 1 7.0710678118654702e-01 3.1754264805429413e+00 1.2655697004379755e+01 0 0 0
236 1 2.1213203435596424e+00 0.0000000000000000e+00 1.1022703842524303e+01 0 0 0
237 1 2.1213203435596428e+00 2.8867513459481309e-01 1.1839200423452029e+01 0 0 0
238 1 7.0710678118654702e-01 2.8867513459481309e-01 1.1839200423452029e+01 0 0 0
239 1 1.4142135623730949e+00 5.7735026918962529e-01 1.1430952132988166e+01 0 0 0
240 1 1.4142135623730949e+00 8.6602540378443926e-01 1.2247448713915892e+01 0 0 0
241 1 2.1213203435596419e+00 1.1547005383792515e+00 1.1839200423452029e+01 0 0 0
242 1 2.1213203435596419e+00 1.4433756729740654e+00 1.2655697004379755e+01 0 0 0
243 1 0.0000000000000000e+00 5.7735026918962529e-01 1.1430952132988166e+01 0 0 0
244 1 0.0000000000000000e+00 8.6602540378443926e-01 1.2247448713915892e+01 0 0 0
245 1 7.0710678118654746e-01 1.1547005383792515e+00 1.1839200423452029e+01 0 0 0
246 1 7.0710678118654791e-01 1.4433756729740654e+00 1.2655697004379755e+01 0 0 0
247 1 1.4142135623730945e+00 1.7320508075688767e+00 1.2247448713915892e+01 0 0 0
248 1 1.4142135623730949e+00 2.0207259421636907e+00 1.3063945294843618e+01 0 0 0
249 1 2.1213203435596424e+00 2.3094010767585029e+00 1.2655697004379755e+01 0 0 0
250 1 2.1213203435596428e+00 2.5980762113533178e+00 1.3472193585307481e+01 0 0 0
251 1 0.0000000000000000e+00 1.7320508075688776e+00 1.2247448713915892e+01 0 0 0
252 1 0.0000000000000000e+00 2.0207259421636907e+00 1.3063945294843618e+01 0 0 0
253 1 7.0710678118654702e-01 2.3094010767585029e+00 1.2655697004379755e+01 0 0 0
254 1 7.0710678118654702e-01 2.5980762113533160e+00 1.3472193585307481e+01 0 0 0
255 1 1.4142135623730949e+00 2.8867513459481300e+00 1.3063945294843618e+01 0 0 0
256 1 1.4142135623730949e+00 3.1754264805429422e+00 1.3880441875771345e+01 0 0 0
257 1 0.0000000000000000e+00 2.8867513459481282e+00 1.3063945294843618e+01 0 0 0
258 1 0.0000000000000000e+00 3.1754264805429422e+00 1.3880441875771345e+01 0 0 0
259 1 1.4142135623730949e+00 0.0000000000000000e+00 1.2247448713915890e+01 0 0 0
260 1 1.4142135623730949e+00 2.8867513459481309e-01 1.3063945294843617e+01 0 0 0
261 1 2.1213203435596419e+00 5.7735026918962618e-01 1.2655697004379753e+01 0 0 0
262 1 2.1213203435596419e+00 8.6602540378443926e-01 1.3472193585307480e+01 0 0 0
263 1 0.0000000000000000e+00 0.0000000000000000e+00 1.2247448713915890e+01 0 0 0
264 1 0.0000000000000000e+00 2.8867513459481309e-01 1.3063945294843617e+01 0 0 0
265 1 7.0710678118654746e-01 5.7735026918962618e-01 1.2655697004379753e+01 0 0 0
266 1 7.0710678118654791e-01 8.6602540378443926e-01 1.3472193585307480e+01 0 0 0
267 1 1.4142135623730945e+00 1.1547005383792515e+00 1.3063945294843617e+01 0 0 0
268 1 1.4142135623730949e+00 1.4433756729740645e+00 1.3880441875771343e+01 0 0 0
269 1 2.1213203435596424e+00 1.7320508075688776e+00 1.3472193585307480e+01 0 0 0
270 1 2.1213203435596428e+00 2.0207259421636916e+00 1.4288690166235206e+01 0 0 0
271 1 0.0000000000000000e+00 1.1547005383792524e+00 1.3063945294843617e+01 0 0 0
272 1 0.0000000000000000e+00 1.4433756729740645e+00 1.3880441875771343e+01 0 0 0
273 1 7.0710678118654702e-01 1.7320508075688776e+00 1.3472193585307480e+01 0 0 0
274 1 7.0710678118654702e-01 2.0207259421636898e+00 1.4288690166235206e+01 0 0 0
275 1 1.4142135623730949e+00 2.3094010767585047e+00 1.3880441875771343e+01 0 0 0
276 1 1.4142135623730949e+00 2.5980762113533160e+00 1.4696938456699069e+01 0 0 0
277 1 2.1213203435596428e+00 2.8867513459481309e+00 1.4288690166235206e+01 0 0 0
278 1 2.1213203435596419e+00 3.1754264805429422e+00 1.5105186747162932e+01 0 0 0
279 1 0.0000000000000000e+00 2.3094010767585029e+00 1.3880441875771343e+01 0 0 0
280 1 0.0000000000000000e+00 2.5980762113533160e+00 1.4696938456699069e+01 0 0 0
281 1 7.0710678118654791e-01 2.8867513459481291e+00 1.4288690166235206e+01 0 0 0
282 1 7.0710678118654791e-01 3.1754264805429422e+00 1.5105186747162932e+01 0 0 0
283 1 2.1213203435596419e+00 0.0000000000000000e+00 1.3472193585307480e+01 0 0 0
284 1 2.1213203435596419e+00 2.8867513459481309e-01 1.4288690166235206e+01 0 0 0
285 1 7.0710678118654746e-01 0.0000000000000000e+00 1.3472193585307480e+01 0 0 0
286 1 7.0710678118654791e-01 2.8867513459481309e-01 1.4288690166235206e+01 0 0 0
287 1 1.4142135623730945e+00 5.7735026918962529e-01 1.3880441875771343e+01 0 0 0
288 1 1.4142135623730949e+00 8.6602540378443837e-01 1.4696938456699069e+01 0 0 0
289 1 2.1213203435596424e+00 1.1547005383792515e+00 1.4288690166235206e+01 0 0 0
290 1 2.1213203435596428e+00 1.4433756729740654e+00 1.5105186747162932e+01 0 0 0
291 1 0.0000000000000000e+00 5.7735026918962618e-01 1.3880441875771343e+01 0 0 0
292 1 0.0000000000000000e+00 8.6602540378443837e-01 1.4696938456699069e+01 0 0 0
293 1 7.0710678118654702e-01 1.1547005383792515e+00 1.4288690166235206e+01 0 0 0
294 1 7.0710678118654702e-01 1.4433756729740637e+00 1.5105186747162932e+01 0 0 0
295 1 1.4142135623730949e+00 1.7320508075688785e+00 1.4696938456699069e+01 0 0 0
296 1 1.4142135623730949e+00 2.0207259421636898e+00 1.5513435037626795e+01 0 0 0
297 1 2.1213203435596428e+00 2.3094010767585047e+00 1.5105186747162932e+01 0 0 0
298 1 2.1213203435596419e+00 2.5980762113533160e+00 1.5921683328090658e+01 0 0 0
299 1 0.0000000000000000e+00 1.7320508075688767e+00 1.4696938456699069e+01 0 0 0
300 1 0.0000000000000000e+00 2.0207259421636898e+00 1.5513435037626795e+01 0 0 0
301 1 7.0710678118654791e-01 2.3094010767585029e+00 1.5105186747162932e+01 0 0 0
302 1 7.0710678118654791e-01 2.5980762113533160e+00 1.5921683328090658e+01 0 0 0
303 1 1.4142135623730958e+00 2.8867513459481291e+00 1.5513435037626795e+01 0 0 0
304 1 0.0000000000000000e+00 2.8867513459481291e+00 1.5513435037626795e+01 0 0 0
305 1 1.4142135623730949e+00 2.8867513459481309e-01 1.5513435037626795e+01 0 0 0
306 1 2.1213203435596424e+00 5.7735026918962529e-01 1.5105186747162932e+01 0 0 0
307 1 2.1213203435596428e+00 8.6602540378444015e-01 1.5921683328090658e+01 0 0 0
308 1 0.0000000000000000e+00 0.0000000000000000e+00 1.4696938456699069e+01 0 0 0
309 1 0.0000000000000000e+00 2.8867513459481309e-01 1.5513435037626795e+01 0 0 0
310 1 7.0710678118654702e-01 5.7735026918962529e-01 1.5105186747162932e+01 0 0 0
311 1 7.0710678118654702e-01 8.6602540378443837e-01 1.5921683328090658e+01 0 0 0
312 1 1.4142135623730949e+00 1.1547005383792524e+00 1.5513435037626795e+01 0 0 0
313 1 2.1213203435596428e+00 1.7320508075688785e+00 1.5921683328090658e+01 0 0 0
314 1 0.0000000000000000e+00 1.1547005383792506e+00 1.5513435037626795e+01 0 0 0
315 1 7.0710678118654791e-01 1.7320508075688767e+00 1.5921683328090658e+01 0 0 0
316 1 2.1213203435596424e+00 0.0000000000000000e+00 1.5921683328090658e+01 0 0 0
317 1 7.0710678118654702e-01 0.0000000000000000e+00 1.5921683328090658e+01 0 0 0

Velocities

1 0.0000000000000000e+00 0.0000000000000000e+00 0.0000000000000000e+00
2 0.0000000000000000e+00 0.0000000000000000e+00 0.0000000000000000e+00
3 0.0000000000000000e+00 0.0000000000000000e+00 0.0000000000000000e+00
4 0.0000000000000000e+00 0.0000000000000000e+00 0.0000000000000000e+00
5 0.0000000000000000e+00 0.0000000000000000e+00 0.0000000000000000e+00
6 0.0000000000000000e+00 0.0000000000000000e+00 0.0000000000000000e+00
7 0.0000000000000000e+00 0.0000000000000000e+00 0.0000000000000000e+00
8 0.0000000000000000e+00 0.0000000000000000e+00 0.0000000000000000e+00
9 0.0000000000000000e+00 0.0000000000000000e+00 0.0000000000000000e+00
10 0.0000000000000000e+00 0.0000000000000000e+00 0.0000000000000000e+00
11 0.0000000000000000e+00 0.0000000000000000e+00 0.0000000000000000e+00
12 0.0000000000000000e+00 0.0000000000000000e+00 0.0000000000000000e+00
13 0.0000000000000000e+00 0.0000000000000000e+00 0.0000000000000000e+00
14 0.0000000000000000e+00 0.0000000000000000e+00 0.0000000000000000e+00
15 0.0000000000000000e+00 0.0000000000000000e+00 0.0000000000000000e+00
16 0.0000000000000000e+00 0.0000000000000000e+00 0.0000000000000000e+00
17 0.0000000000000000e+00 0.0000000000000000e+00 0.0000000000000000e+00
18 0.0000000000000000e+00 0.0000000000000000e+00 0.0000000000000000e+00
19 0.0000000000000000e+00 0.0000000000000000e+00 0.0000000000000000e+00
20 0.0000000000000000e+00 0.0000000000000000e+00 0.0000000000000000e+00
21 0.0000000000000000e+00 0.0000000000000000e+00 0.0000000000000000e+00
22 0.0000000000000000e+00 0.0000000000000000e+00 0.0000000000000000e+00
23 0.0000000000000000e+00 0.0000000000000000e+00 0.0000000000000000e+00
24 0.0000000000000000e+00 0.0000000000000000e+00 0.0000000000000000e+00
25 0.0000000000000000e+00 0.0000000000000000e+00 0.0000000000000000e+00
26 0.0000000000000000e+00 0.0000000000000000e+00 0.0000000000000000e+00
27 0.0000000000000000e+00 0.0000000000000000e+00 0.0000000000000000e+00
28 0.0000000000000000e+00 0.0000000000000000e+00 0.0000000000000000e+00
29 0.0000000000000000e+00 0.0000000000000000e+00 0.0000000000000000e+00
30 0.0000000000000000e+00 0.0000000000000000e+00 0.0000000000000000e+00
31 0.0000000000000000e+00 0.0000000000000000e+00 0.0000000000000000e+00
32 0.0000000000000000e+00 0.0000000000000000e+00 0.0000000000000000e+00
33 0.0000000000000000e+00 0.0000000000000000e+00 0.0000000000000000e+00
34 0.0000000000000000e+00 0.0000000000000000e+00 0.0000000000000000e+00
35 0.0000000000000000e+00 0.0000000000000000e+00 0.0000000000000000e+00
36 0.0000000000000000e+00 0.0000000000000000e+00 0.0000000000000000e+00
37 0.0000000000000000e+00 0.0000000000000000e+00 0.0000000000000000e+00
38 0.0000000000000000e+00 0.0000000000000000e+00 0.0000000000000000e+00
39 0.0000000000000000e+00 0.0000000000000000e+00 0.0000000000000000e+00
40 0.0000000000000000e+00 0.0000000000000000e+00 0.0000000000000000e+00
41 0.0000000000000000e+00 0.0000000000000000e+00 0.0000000000000000e+00
42 0.0000000000000000e+00 0.0000000000000000e+00 0.0000000000000000e+00
43 0.0000000000000000e+00 0.0000000000000000e+00 0.0000000000000000e+00
44 0.0000000000000000e+00 0.0000000000000000e+00 0.0000000000000000e+00
45 0.0000000000000000e+00 0.0000000000000000e+00 0.0000000000000000e+00
46 0.0000000000000000e+00 0.0000000000000000e+00 0.0000000000000000e+00
47 0.0000000000000000e+00 0.0000000000000000e+00 0.0000000000000000e+00
48 0.0000000000000000e+00 0.0000000000000000e+00 0.0000000000000000e+00
49 0.0000000000000000e+00 0.0000000000000000e+00 0.0000000000000000e+00
50 0.0000000000000000e+00 0.0000000000000000e+00 0.0000000000000000e+00
51 0.0000000000000000e+00 0.0000000000000000e+00 0.0000000000000000e+00
52 0.0000000000000000e+00 0.0000000000000000e+00 0.0000000000000000e+00
53 0.0000000000000000e+00 0.0000000000000000e+00 0.0000000000000000e+00
54 0.0000000000000000e+00 0.0000000000000000e+00 0.0000000000000000e+00
55 0.0000000000000000e+00 0.0000000000000000e+00 0.0000000000000000e+00
56 0.0000000000000000e+00 0.0000000000000000e+00 0.0000000000000000e+00
57 0.0000000000000000e+00 0.0000000000000000e+00 0.0000000000000000e+00