ITEM: TIMESTEP
657
ITEM: NUMBER OF ATOMS
159
ITEM: BOX BOUNDS pp pp pp
0.0000000000000000e+00 9.1980450096746083e+00
0.0000000000000000e+00 1.1265258452427979e+01
0.0000000000000000e+00 4.1552468811769650e+01
ITEM: ATOMS id type xs ys zs
6 3 0 0.25 0
24 3 0 0 0
26 1 0.249781 0.166667 0.0289666
27 1 0.252613 0.25 0.0932465
37 1 0.249803 0 0.0908605
21 1 0.499631 0.0833333 0.0623003
25 1 0.997543 0.0833333 0.0623586
4 3 0.5 0.25 5.34372e-18
20 3 0.5 0 0
22 1 0.749276 0.166667 0.0270218
23 1 0.743715 0.25 0.089228
36 1 0.744611 0 0.094435
7 1 0.247487 0.416667 0.0271514
12 3 0 0.5 0
33 1 0.243481 0.5 0.0892571
28 1 0.493239 0.333333 0.0615547
31 1 0.00368795 0.333333 0.0632096
9 1 0.507847 0.583333 0.0670069
13 1 0.997858 0.583333 0.060187
5 1 0.751279 0.416667 0.0287607
8 3 0.5 0.5 0
30 1 0.763626 0.5 0.0921107
2 3 0 0.75 0
3 1 0.242975 0.916667 0.028982
14 1 0.272873 0.666667 0.0274891
15 1 0.252991 0.75 0.0927879
18 1 0.00480458 0.833333 0.0632943
17 1 0.492611 0.916667 0.122998
16 1 0.500601 0.833333 0.0588195
1 1 0.760876 0.916667 0.0317985
10 1 0.729034 0.666667 0.025552
11 1 0.752582 0.75 0.0920683
72 1 0.251103 0.166667 0.217082
49 1 0.236186 0.0833333 0.153742
66 1 0.488118 0 0.185962
70 1 0.00794662 0 0.193857
53 1 -0.00114093 0.25 0.190368
39 1 0.988132 0.166667 0.125292
38 1 0.505975 0.166667 0.128434
48 1 0.758369 0.0833333 0.160558
68 1 0.762333 0.166667 0.224365
50 1 0.512503 0.25 0.194097
41 1 0.24897 0.583333 0.154604
54 1 0.262637 0.333333 0.158102
55 1 0.254319 0.416667 0.223007
60 1 0.00543967 0.5 0.194364
32 1 0.00945088 0.416667 0.12979
56 1 0.49486 0.5 0.191165
29 1 0.49829 0.416667 0.125673
40 1 0.753373 0.583333 0.156198
51 1 0.746801 0.333333 0.153261
52 1 0.748709 0.416667 0.216508
46 1 0.24759 0.833333 0.158087
47 1 0.263218 0.916667 0.224474
62 1 0.235524 0.666667 0.217562
35 1 0.00146321 0.666667 0.1255
19 1 0.994959 0.916667 0.126861
42 1 0.500037 0.75 0.194884
34 1 0.500502 0.666667 0.129958
45 1 0.98567 0.75 0.187883
43 1 0.738649 0.833333 0.155724
44 1 0.733851 0.916667 0.219303
58 1 0.754269 0.666667 0.222499
79 1 0.252148 0 0.288097
73 1 0.255033 0.25 0.281471
95 2 0.252849 0.166667 0.346554
71 1 0.0154161 0.0833333 0.257266
100 2 0.00479195 0.25 0.320233
67 1 0.497576 0.0833333 0.253941
96 2 0.502181 0.25 0.323081
78 1 0.760207 0 0.282635
69 1 0.751406 0.25 0.287723
94 2 0.75324 0.166667 0.354039
77 1 0.251216 0.5 0.287286
102 2 0.248113 0.416667 0.352619
85 2 0.247349 0.666667 0.346528
57 1 0.488183 0.583333 0.255101
61 1 0.00734932 0.583333 0.259198
82 2 0.502299 0.5 0.320324
76 1 0.993919 0.333333 0.256449
74 1 0.510807 0.333333 0.258221
84 2 0.998604 0.5 0.322679
75 1 0.747381 0.5 0.280916
98 2 0.749171 0.416667 0.346338
83 2 0.758868 0.666667 0.352944
63 1 0.249181 0.75 0.282345
92 2 0.270061 0.916667 0.354332
90 2 0.00231806 0.75 0.319856
81 2 0.00270019 1 0.322349
86 2 0.502263 0.75 0.322472
64 1 0.508757 0.833333 0.259332
65 1 0.993151 0.833333 0.252473
80 2 0.508213 1 0.318746
59 1 0.753636 0.75 0.286698
88 2 0.749163 0.916667 0.346978
117 2 0.247902 0.25 0.411041
115 2 0.0198438 0.0833333 0.384143
142 2 0.245538 0.0833333 0.482905
125 2 0.239607 0.333333 0.477323
113 2 0.483733 0.166667 0.449202
112 2 0.493739 0.0833333 0.385245
116 2 0.00184173 0.166667 0.449235
97 2 0.507883 0.333333 0.386134
101 2 0.98226 0.333333 0.38452
114 2 0.742293 0.25 0.419633
140 2 0.74291 0.0833333 0.478124
124 2 0.763624 0.333333 0.482816
103 2 0.263889 0.5 0.419439
130 2 0.268521 0.583333 0.482348
108 2 0.0251023 0.666667 0.451432
107 2 0.0181613 0.583333 0.387327
104 2 0.487178 0.583333 0.382624
119 2 0.990938 0.416667 0.447047
118 2 0.513653 0.416667 0.452469
105 2 0.505875 0.666667 0.447607
99 2 0.741361 0.5 0.411078
127 2 0.758227 0.583333 0.478176
109 2 0.255313 0.75 0.411958
93 2 0.245891 1 0.420073
121 2 0.266579 0.833333 0.479003
91 2 0.00032943 0.833333 0.382592
111 2 0.998805 0.916667 0.450966
87 2 0.529701 0.833333 0.38661
110 2 0.510956 0.916667 0.447895
106 2 0.774371 0.75 0.419331
89 2 0.767595 1 0.412515
120 2 0.74385 0.833333 0.482014
159 3 0.25 0.25 0.60706
143 2 0.256681 0.166667 0.545567
149 2 0.00169772 0.333333 0.578501
158 2 6.24205e-05 0.0833333 0.577429
148 2 0.0064805 0.25 0.516126
144 2 0.497873 0.25 0.513067
156 2 0.500794 0.0833333 0.578278
145 2 0.502567 0.333333 0.577761
157 3 0.75 0.25 0.60706
141 2 0.745195 0.166667 0.543967
151 3 0.25 0.5 0.60706
150 2 0.255587 0.416667 0.543954
131 2 0.248531 0.666667 0.545067
129 2 0.00689304 0.5 0.513572
152 2 0.49955 0.583333 0.578461
154 2 0.00141367 0.583333 0.577602
126 2 0.511259 0.5 0.515796
147 3 0.75 0.5 0.60706
146 2 0.757163 0.416667 0.545297
128 2 0.755923 0.666667 0.544247
155 3 0.25 0.75 0.60706
139 3 0.25 1 0.60706
138 2 0.242342 0.916667 0.543936
122 2 0.499655 1 0.514792
132 2 0.50244 0.75 0.515243
133 2 0.497655 0.833333 0.577451
136 2 0.00178988 0.75 0.514093
137 2 0.999575 0.833333 0.578486
123 2 0.990716 1 0.513461
153 3 0.75 0.75 0.60706
135 3 0.75 1 0.60706
134 2 0.751142 0.916667 0.545401
