ITEM: TIMESTEP
220
ITEM: NUMBER OF ATOMS
159
ITEM: BOX BOUNDS pp pp pp
0.0000000000000000e+00 9.1980450096746083e+00
0.0000000000000000e+00 1.1265258452427979e+01
0.0000000000000000e+00 4.1552468811769650e+01
ITEM: ATOMS id type xs ys zs
6 3 0 0.25 0
24 3 0 0 0
26 1 0.248588 0.166667 0.0298325
27 1 0.256034 0.25 0.0949049
37 1 0.253931 0 0.0904516
21 1 0.502519 0.0833333 0.0624065
25 1 0.99431 0.0833333 0.0629991
4 3 0.5 0.25 5.34372e-18
20 3 0.5 0 0
22 1 0.749755 0.166667 0.0274814
23 1 0.742664 0.25 0.0903817
36 1 0.738514 0 0.0958627
7 1 0.246992 0.416667 0.0273682
12 3 0 0.5 0
33 1 0.249767 0.5 0.0892707
28 1 0.492172 0.333333 0.0615008
31 1 0.00647672 0.333333 0.0629892
9 1 0.518421 0.583333 0.0655598
13 1 0.999301 0.583333 0.0606941
5 1 0.752796 0.416667 0.0309302
8 3 0.5 0.5 0
30 1 0.771203 0.5 0.0959444
2 3 0 0.75 0
3 1 0.245328 0.916667 0.0282668
14 1 0.277 0.666667 0.0290622
15 1 0.249332 0.75 0.0954065
18 1 0.01218 0.833333 0.0625038
17 1 0.485254 0.916667 0.126685
16 1 0.500976 0.833333 0.0606813
1 1 0.761897 0.916667 0.0323676
10 1 0.731603 0.666667 0.0250783
11 1 0.763789 0.75 0.0915168
72 1 0.258565 0.166667 0.220393
49 1 0.237285 0.0833333 0.154903
66 1 0.490731 0 0.189202
70 1 0.0066556 0 0.193398
53 1 0.00384458 0.25 0.190728
39 1 0.98765 0.166667 0.125458
38 1 0.508336 0.166667 0.128987
48 1 0.759177 0.0833333 0.160949
68 1 0.761944 0.166667 0.22446
50 1 0.520077 0.25 0.192843
41 1 0.266702 0.583333 0.155617
54 1 0.268393 0.333333 0.160471
55 1 0.24315 0.416667 0.223887
29 1 0.502094 0.416667 0.12566
60 1 0.00789991 0.5 0.18993
32 1 0.0238239 0.416667 0.12782
56 1 0.49877 0.5 0.193603
40 1 0.743745 0.583333 0.160294
51 1 0.755014 0.333333 0.155426
52 1 0.763415 0.416667 0.221267
46 1 0.238233 0.833333 0.16061
47 1 0.258145 0.916667 0.224631
62 1 0.243816 0.666667 0.220602
35 1 0.999366 0.666667 0.129103
19 1 0.00100343 0.916667 0.125667
34 1 0.512861 0.666667 0.12625
42 1 0.499206 0.75 0.191141
45 1 0.98448 0.75 0.192354
43 1 0.748892 0.833333 0.155775
44 1 0.738785 0.916667 0.220989
58 1 0.742944 0.666667 0.224311
79 1 0.257934 0 0.287463
73 1 0.253917 0.25 0.285374
95 2 0.252901 0.125 0.35055
71 1 0.0135798 0.0833333 0.256012
100 2 0.998738 0.208333 0.321544
96 2 0.50181 0.208333 0.320661
67 1 0.502993 0.0833333 0.25553
78 1 0.756885 0 0.285194
69 1 0.74939 0.25 0.286658
94 2 0.749871 0.125 0.351798
77 1 0.247743 0.5 0.286732
102 2 0.238464 0.375 0.351084
85 2 0.252574 0.625 0.351569
61 1 0.998219 0.583333 0.255795
57 1 0.490434 0.583333 0.255971
82 2 0.495061 0.458333 0.3222
76 1 -0.00018457 0.333333 0.256756
74 1 0.502016 0.333333 0.255635
84 2 0.993926 0.458333 0.319926
75 1 0.741705 0.5 0.285425
98 2 0.74896 0.375 0.351249
83 2 0.747304 0.625 0.350809
63 1 0.246153 0.75 0.285389
92 2 0.254995 0.875 0.351559
90 2 0.00352322 0.708333 0.321801
81 2 0.00446539 0.958333 0.320432
65 1 -0.00304012 0.833333 0.255338
64 1 0.503609 0.833333 0.256759
80 2 0.510103 0.958333 0.321573
86 2 0.497762 0.708333 0.320276
59 1 0.75311 0.75 0.28693
88 2 0.760182 0.875 0.351074
117 2 0.248399 0.208333 0.415807
115 2 0.0092536 0.0416667 0.382991
142 2 0.230446 0.0416667 0.479948
125 2 0.258232 0.291667 0.481881
113 2 0.491671 0.125 0.451865
112 2 0.489915 0.0416667 0.386069
116 2 0.988516 0.125 0.446698
97 2 0.493368 0.291667 0.382915
101 2 0.990337 0.291667 0.386569
114 2 0.731487 0.208333 0.415396
140 2 0.748761 0.0416667 0.480284
124 2 0.742665 0.291667 0.478397
107 2 0.993675 0.541667 0.382997
103 2 0.245155 0.458333 0.413507
130 2 0.251506 0.541667 0.480453
105 2 0.507567 0.625 0.451816
104 2 0.509269 0.541667 0.386396
108 2 0.0134409 0.625 0.446552
119 2 0.0122616 0.375 0.451468
118 2 0.490222 0.375 0.447005
99 2 0.755998 0.458333 0.416895
127 2 0.769981 0.541667 0.47949
109 2 0.267723 0.708333 0.414987
93 2 0.243282 0.958333 0.417538
121 2 0.259065 0.791667 0.478387
111 2 0.987707 0.875 0.451638
87 2 0.509268 0.791667 0.382892
91 2 0.00924864 0.791667 0.386112
110 2 0.510833 0.875 0.446485
106 2 0.753763 0.708333 0.416168
89 2 0.757021 0.958333 0.41336
120 2 0.74042 0.791667 0.482079
159 3 0.25 0.208333 0.60706
143 2 0.244272 0.125 0.544142
145 2 0.500149 0.291667 0.579343
148 2 0.993476 0.208333 0.511949
144 2 0.506837 0.208333 0.516381
149 2 0.00411341 0.291667 0.576707
158 2 0.00103651 0.0416667 0.579378
156 2 0.498365 0.0416667 0.576771
157 3 0.75 0.208333 0.60706
141 2 0.75561 0.125 0.544982
151 3 0.25 0.458333 0.60706
150 2 0.261739 0.375 0.544316
131 2 0.243927 0.625 0.544999
152 2 0.501522 0.541667 0.576874
154 2 0.999065 0.541667 0.579446
126 2 0.511306 0.458333 0.512064
129 2 1.00352 0.458333 0.516666
147 3 0.75 0.458333 0.60706
146 2 0.749675 0.375 0.544827
128 2 0.756334 0.625 0.544093
155 3 0.25 0.708333 0.60706
139 3 0.25 0.958333 0.60706
138 2 0.250203 0.875 0.54477
122 2 0.489581 0.958333 0.512034
132 2 0.493436 0.708333 0.516594
133 2 0.499885 0.791667 0.579348
136 2 0.00655464 0.708333 0.511737
137 2 0.996107 0.791667 0.576689
123 2 -0.0037867 0.958333 0.516613
153 3 0.75 0.708333 0.60706
135 3 0.75 0.958333 0.60706
134 2 0.738956 0.875 0.544457
