ITEM: TIMESTEP
1365
ITEM: NUMBER OF ATOMS
159
ITEM: BOX BOUNDS pp pp pp
0.0000000000000000e+00 9.1980450096746083e+00
0.0000000000000000e+00 1.1265258452427979e+01
0.0000000000000000e+00 4.1552468811769650e+01
ITEM: ATOMS id type xs ys zs
6 3 0 0.25 0
24 3 0 0 0
26 1 0.252735 0.166667 0.0301908
27 1 0.266462 0.25 0.095594
37 1 0.250314 0 0.0907253
21 1 0.507637 0.0833333 0.062361
25 1 0.997609 0.0833333 0.0618597
4 3 0.5 0.25 5.34372e-18
20 3 0.5 0 0
22 1 0.749025 0.166667 0.0270212
23 1 0.751417 0.25 0.0896092
36 1 0.757264 0 0.0951299
39 1 1.00385 0.166667 0.125134
7 1 0.247938 0.416667 0.0266973
12 3 0 0.5 0
33 1 0.25297 0.5 0.0886455
28 1 0.498714 0.333333 0.0611599
31 1 0.0120034 0.333333 0.0628874
13 1 -0.000469336 0.583333 0.0606628
9 1 0.513333 0.583333 0.0656842
5 1 0.755319 0.416667 0.0301598
8 3 0.5 0.5 0
30 1 0.763689 0.5 0.0941457
2 3 0 0.75 0
3 1 0.243775 0.916667 0.0290097
14 1 0.274804 0.666667 0.0275925
15 1 0.247635 0.75 0.0932701
18 1 0.00355931 0.833333 0.0625364
17 1 0.495139 0.916667 0.122448
16 1 0.499972 0.833333 0.0593209
1 1 0.757954 0.916667 0.0315519
10 1 0.730992 0.666667 0.0251762
11 1 0.75525 0.75 0.091568
72 1 0.269908 0.166667 0.220265
49 1 0.259151 0.0833333 0.154884
70 1 0.0289185 0 0.190686
53 1 0.00589244 0.25 0.190924
66 1 0.50708 0 0.187857
38 1 0.523756 0.166667 0.127194
48 1 0.772026 0.0833333 0.160758
68 1 0.751408 0.166667 0.223755
50 1 0.515048 0.25 0.189178
41 1 0.25224 0.583333 0.153765
54 1 0.253509 0.333333 0.160201
55 1 0.243526 0.416667 0.22505
60 1 0.00346191 0.5 0.190612
32 1 0.0169261 0.416667 0.126148
56 1 0.486208 0.5 0.190687
29 1 0.503233 0.416667 0.126638
40 1 0.743185 0.583333 0.159192
51 1 0.76671 0.333333 0.154851
52 1 0.747367 0.416667 0.218562
46 1 0.265282 0.833333 0.159963
47 1 0.273662 0.916667 0.225418
62 1 0.241854 0.666667 0.217716
35 1 -0.005041 0.666667 0.126628
19 1 0.0124323 0.916667 0.126728
34 1 0.502712 0.666667 0.127289
44 1 0.762914 0.916667 0.220164
58 1 0.769403 0.666667 0.226197
43 1 0.743941 0.833333 0.154836
42 1 0.518294 0.75 0.19337
45 1 0.990362 0.75 0.187851
79 1 0.242637 0 0.288135
73 1 0.257766 0.25 0.284641
95 2 0.249128 0.258333 0.35234
71 1 0.0179131 0.0833333 0.252369
81 2 0.00514564 0.0916667 0.320944
80 2 0.493305 0.0916667 0.317602
92 2 0.261056 0.00833333 0.354185
78 1 0.774046 0 0.284581
69 1 0.741215 0.25 0.288801
94 2 0.778103 0.258333 0.353189
67 1 0.507238 0.0833333 0.253809
88 2 0.732223 0.00833333 0.349489
100 2 0.0153706 0.341667 0.317966
96 2 0.501595 0.341667 0.321752
77 1 0.262625 0.5 0.288523
102 2 0.252598 0.508333 0.352087
61 1 0.0212591 0.583333 0.257658
57 1 0.492311 0.583333 0.252867
82 2 0.514419 0.591667 0.318839
74 1 0.508969 0.333333 0.253796
84 2 0.984665 0.591667 0.322752
75 1 0.750014 0.5 0.285201
98 2 0.741295 0.508333 0.354012
76 1 0.981041 0.333333 0.253784
85 2 0.228288 0.758333 0.352038
63 1 0.268342 0.75 0.28499
90 2 0.00433468 0.841667 0.317509
86 2 0.484816 0.841667 0.322054
65 1 0.0108059 0.833333 0.252578
83 2 0.744082 0.758333 0.353689
64 1 0.527253 0.833333 0.25575
59 1 0.75524 0.75 0.288984
115 2 0.0151631 0.175 0.387552
142 2 0.254677 0.175 0.479239
93 2 0.273299 0.0916667 0.416868
111 2 0.0109441 0.00833333 0.446284
113 2 0.510012 0.258333 0.446565
112 2 0.50977 0.175 0.381273
116 2 0.987419 0.258333 0.450949
140 2 0.743144 0.175 0.481883
89 2 0.752927 0.0916667 0.415824
110 2 0.510028 0.00833333 0.452759
117 2 0.246587 0.341667 0.417843
125 2 0.226222 0.425 0.479976
103 2 0.246056 0.591667 0.417367
97 2 0.488411 0.425 0.38607
101 2 0.00983818 0.425 0.383426
118 2 0.491679 0.508333 0.451793
114 2 0.752347 0.341667 0.415195
119 2 0.983423 0.508333 0.446613
124 2 0.748788 0.425 0.481441
99 2 0.725807 0.591667 0.416031
130 2 0.259424 0.675 0.48256
104 2 0.484956 0.675 0.381839
108 2 0.0109917 0.758333 0.452684
109 2 0.23569 0.841667 0.414007
121 2 0.25266 0.925 0.480439
105 2 0.487081 0.758333 0.44638
107 2 0.988046 0.675 0.387521
127 2 0.739171 0.675 0.479203
106 2 0.761512 0.841667 0.419042
87 2 0.511938 0.925 0.388648
91 2 0.983379 0.925 0.380036
120 2 0.767745 0.925 0.480852
143 2 0.251471 0.258333 0.545109
139 3 0.25 0.0916667 0.60706
122 2 0.492674 0.0916667 0.516821
123 2 0.006287 0.0916667 0.511284
156 2 0.499639 0.175 0.579897
138 2 0.243162 0.00833333 0.545053
158 2 0.995337 0.175 0.576327
141 2 0.735204 0.258333 0.544401
135 3 0.75 0.0916667 0.60706
134 2 0.755916 0.00833333 0.544408
159 3 0.25 0.341667 0.60706
144 2 0.486992 0.341667 0.510985
149 2 0.00087833 0.425 0.579541
151 3 0.25 0.591667 0.60706
150 2 0.24359 0.508333 0.544346
145 2 0.498009 0.425 0.576634
148 2 0.995593 0.341667 0.516963
157 3 0.75 0.341667 0.60706
129 2 0.993082 0.591667 0.512368
126 2 0.505536 0.591667 0.516645
147 3 0.75 0.591667 0.60706
146 2 0.755158 0.508333 0.54537
154 2 0.00336098 0.675 0.57701
131 2 0.259823 0.758333 0.544804
155 3 0.25 0.841667 0.60706
136 2 0.00393321 0.841667 0.516772
152 2 0.500206 0.675 0.579392
133 2 0.501449 0.925 0.576935
137 2 0.998869 0.925 0.579671
128 2 0.750089 0.758333 0.544928
132 2 0.509077 0.841667 0.512611
153 3 0.75 0.841667 0.60706
