ITEM: TIMESTEP
1022
ITEM: NUMBER OF ATOMS
159
ITEM: BOX BOUNDS pp pp pp
0.0000000000000000e+00 9.1980450096746083e+00
0.0000000000000000e+00 1.1265258452427979e+01
0.0000000000000000e+00 4.1552468811769650e+01
ITEM: ATOMS id type xs ys zs
6 3 0 0.25 0
24 3 0 0 0
26 1 0.247572 0.166667 0.02931
27 1 0.245099 0.25 0.0947052
37 1 0.247543 0 0.0900543
21 1 0.495881 0.0833333 0.0618438
25 1 0.994561 0.0833333 0.0618162
4 3 0.5 0.25 5.34372e-18
20 3 0.5 0 0
22 1 0.749208 0.166667 0.0268322
23 1 0.738412 0.25 0.0890566
36 1 0.736201 0 0.0940215
39 1 0.97598 0.166667 0.123683
7 1 0.246858 0.416667 0.0264433
12 3 0 0.5 0
33 1 0.240982 0.5 0.0880887
28 1 0.486811 0.333333 0.061062
31 1 0.00053051 0.333333 0.0623629
29 1 0.48813 0.416667 0.123801
9 1 0.511623 0.583333 0.0649354
13 1 0.990128 0.583333 0.0600779
5 1 0.748944 0.416667 0.0301288
8 3 0.5 0.5 0
30 1 0.759251 0.5 0.0952047
2 3 0 0.75 0
3 1 0.244885 0.916667 0.0281002
14 1 0.270928 0.666667 0.0281938
15 1 0.248732 0.75 0.093182
18 1 0.0062537 0.833333 0.0624208
17 1 0.484666 0.916667 0.122771
16 1 0.500032 0.833333 0.0586958
1 1 0.759395 0.916667 0.0312799
10 1 0.727827 0.666667 0.0236194
11 1 0.754641 0.75 0.0904364
72 1 0.232219 0.166667 0.215818
49 1 0.226041 0.0833333 0.152729
66 1 0.470134 0 0.184346
70 1 0.00292515 0 0.193654
67 1 0.483064 0.0833333 0.247694
38 1 0.498266 0.166667 0.127628
53 1 0.981964 0.25 0.185604
48 1 0.746478 0.0833333 0.161686
68 1 0.764981 0.166667 0.228777
50 1 0.507844 0.25 0.193284
41 1 0.250268 0.583333 0.153086
54 1 0.253931 0.333333 0.16127
55 1 0.261201 0.416667 0.228883
60 1 0.0067928 0.5 0.191864
32 1 0.00818742 0.416667 0.127377
56 1 0.486136 0.5 0.186932
57 1 0.47662 0.583333 0.248756
40 1 0.742662 0.583333 0.159375
51 1 0.737256 0.333333 0.153144
52 1 0.738793 0.416667 0.215659
76 1 0.984126 0.333333 0.248282
46 1 0.2358 0.833333 0.160093
47 1 0.262835 0.916667 0.228996
62 1 0.225518 0.666667 0.215276
34 1 0.50056 0.666667 0.126476
35 1 0.998654 0.666667 0.12523
19 1 0.98997 0.916667 0.125874
42 1 0.500203 0.75 0.192972
45 1 0.969388 0.75 0.186254
43 1 0.733525 0.833333 0.153107
44 1 0.723005 0.916667 0.215796
58 1 0.758411 0.666667 0.22899
65 1 0.978807 0.833333 0.248361
79 1 0.237796 0 0.295539
73 1 0.274639 0.25 0.280664
95 2 0.224065 0.208333 0.348595
71 1 0.0295765 0.0833333 0.257985
100 2 0.0149913 0.291667 0.310887
96 2 0.481676 0.291667 0.326116
81 2 0.981796 0.0416667 0.326172
78 1 0.772602 0 0.280685
69 1 0.738063 0.25 0.295504
94 2 0.773198 0.208333 0.358213
80 2 0.513719 0.0416667 0.310545
77 1 0.23659 0.5 0.296029
102 2 0.268793 0.458333 0.358635
61 1 0.0272981 0.583333 0.258315
82 2 0.513719 0.541667 0.311336
74 1 0.530989 0.333333 0.257207
84 2 0.977207 0.541667 0.326121
75 1 0.769541 0.5 0.28057
98 2 0.721196 0.458333 0.349468
85 2 0.221221 0.708333 0.348671
63 1 0.268736 0.75 0.280723
92 2 0.27172 0.958333 0.358224
90 2 0.0124839 0.791667 0.311114
86 2 0.478541 0.791667 0.326259
83 2 0.768064 0.708333 0.358548
64 1 0.52633 0.833333 0.258785
59 1 0.736757 0.75 0.295849
88 2 0.723409 0.958333 0.34805
117 2 0.244612 0.291667 0.414583
115 2 0.024536 0.125 0.391413
142 2 0.262339 0.125 0.481663
112 2 0.491846 0.125 0.377408
116 2 0.00716413 0.208333 0.45407
93 2 0.28084 0.0416667 0.420354
113 2 0.509946 0.208333 0.446325
114 2 0.771472 0.291667 0.420285
140 2 0.751462 0.125 0.480785
89 2 0.749445 0.0416667 0.413918
125 2 0.247319 0.375 0.47999
103 2 0.270091 0.541667 0.421182
130 2 0.270908 0.625 0.483114
107 2 0.0193081 0.625 0.390977
104 2 0.48675 0.625 0.378013
119 2 0.00145768 0.458333 0.4458
97 2 0.516391 0.375 0.391321
101 2 0.990141 0.375 0.377755
124 2 0.762415 0.375 0.482593
118 2 0.511831 0.458333 0.453858
99 2 0.744115 0.541667 0.413901
127 2 0.751834 0.625 0.479676
108 2 0.0204764 0.708333 0.453997
109 2 0.247765 0.791667 0.413257
121 2 0.256961 0.875 0.480346
111 2 0.013682 0.958333 0.446133
105 2 0.505113 0.708333 0.445601
106 2 0.778592 0.791667 0.42108
87 2 0.52578 0.875 0.391218
110 2 0.517122 0.958333 0.454208
91 2 0.988613 0.875 0.377705
120 2 0.77122 0.875 0.48223
159 3 0.25 0.291667 0.60706
143 2 0.257768 0.208333 0.545319
148 2 0.00397827 0.291667 0.517725
139 3 0.25 0.0416667 0.60706
123 2 0.00831023 0.0416667 0.513041
158 2 7.87755e-05 0.125 0.577288
144 2 0.501837 0.291667 0.51229
122 2 0.501244 0.0416667 0.51737
156 2 0.500523 0.125 0.5802
157 3 0.75 0.291667 0.60706
141 2 0.745307 0.208333 0.544674
135 3 0.75 0.0416667 0.60706
149 2 0.000925928 0.375 0.580349
151 3 0.25 0.541667 0.60706
150 2 0.248473 0.458333 0.544774
129 2 0.00617809 0.541667 0.51203
154 2 0.00381673 0.625 0.577131
152 2 0.50044 0.625 0.580173
145 2 0.50179 0.375 0.577163
126 2 0.508504 0.541667 0.517843
147 3 0.75 0.541667 0.60706
146 2 0.761293 0.458333 0.545441
131 2 0.26068 0.708333 0.545284
155 3 0.25 0.791667 0.60706
138 2 0.248912 0.958333 0.544978
136 2 0.00642045 0.791667 0.517466
133 2 0.5021 0.875 0.577242
137 2 0.999945 0.875 0.580037
128 2 0.752519 0.708333 0.545021
132 2 0.512567 0.791667 0.512744
153 3 0.75 0.791667 0.60706
134 2 0.757547 0.958333 0.545114
