ITEM: TIMESTEP
1643
ITEM: NUMBER OF ATOMS
159
ITEM: BOX BOUNDS pp pp pp
0.0000000000000000e+00 9.1980450096746083e+00
0.0000000000000000e+00 1.1265258452427979e+01
0.0000000000000000e+00 4.1552468811769650e+01
ITEM: ATOMS id type xs ys zs
6 3 0 0.25 0
24 3 0 0 0
26 1 0.249304 0.166667 0.0293686
27 1 0.256263 0.25 0.0944939
37 1 0.243559 0 0.0919535
21 1 0.495336 0.0833333 0.0627684
25 1 0.996574 0.0833333 0.0620706
4 3 0.5 0.25 5.34372e-18
20 3 0.5 0 0
22 1 0.747786 0.166667 0.0282409
23 1 0.742109 0.25 0.0905638
36 1 0.743849 0 0.0938404
39 1 0.986646 0.166667 0.1245
7 1 0.247083 0.416667 0.02788
12 3 0 0.5 0
33 1 0.249317 0.5 0.0899799
28 1 0.492674 0.333333 0.0610466
31 1 0.00711486 0.333333 0.063051
13 1 0.999209 0.583333 0.0601746
9 1 0.520722 0.583333 0.0662463
5 1 0.752843 0.416667 0.0303784
8 3 0.5 0.5 0
30 1 0.774055 0.5 0.0950944
29 1 0.501834 0.416667 0.124581
2 3 0 0.75 0
3 1 0.243395 0.916667 0.0298184
14 1 0.278862 0.666667 0.0288538
15 1 0.25029 0.75 0.0926293
18 1 0.00130457 0.833333 0.0631365
17 1 0.48861 0.916667 0.123138
16 1 0.505871 0.833333 0.0594571
1 1 0.759645 0.916667 0.0312158
10 1 0.732888 0.666667 0.0247921
11 1 0.757324 0.75 0.0930651
72 1 0.254359 0.166667 0.221831
49 1 0.239333 0.0833333 0.154655
70 1 0.0152369 0 0.193747
53 1 0.00887245 0.25 0.188984
66 1 0.487689 0 0.187234
38 1 0.513477 0.166667 0.129163
48 1 0.761301 0.0833333 0.160716
68 1 0.76537 0.166667 0.222666
50 1 0.511829 0.25 0.193762
41 1 0.254407 0.583333 0.158668
54 1 0.271229 0.333333 0.159411
55 1 0.247781 0.416667 0.221489
32 1 0.0219013 0.416667 0.128671
60 1 0.984551 0.5 0.191749
56 1 0.510828 0.5 0.18988
40 1 0.746696 0.583333 0.156363
51 1 0.752462 0.333333 0.156902
52 1 0.745716 0.416667 0.224218
46 1 0.247259 0.833333 0.1592
47 1 0.262951 0.916667 0.225113
62 1 0.226966 0.666667 0.220346
35 1 0.0121447 0.666667 0.126644
34 1 0.491017 0.666667 0.127811
42 1 0.496768 0.75 0.19355
19 1 0.993501 0.916667 0.127496
44 1 0.741662 0.916667 0.22066
58 1 0.747666 0.666667 0.224035
43 1 0.730741 0.833333 0.156143
45 1 0.978912 0.75 0.188583
79 1 0.249035 0 0.286993
73 1 0.243362 0.25 0.285861
95 2 0.239782 0.3 0.349356
80 2 0.49344 0.133333 0.318081
92 2 0.246766 0.05 0.352446
71 1 0.000712775 0.0833333 0.25728
81 2 0.991409 0.133333 0.322451
78 1 0.753551 0 0.286976
69 1 0.743829 0.25 0.285956
94 2 0.752017 0.3 0.35284
67 1 0.510387 0.0833333 0.253349
88 2 0.730552 0.05 0.351624
77 1 0.246043 0.5 0.288396
102 2 0.266621 0.55 0.352461
84 2 0.00379297 0.633333 0.322577
57 1 0.480095 0.583333 0.253065
96 2 0.502924 0.383333 0.322329
74 1 0.488128 0.333333 0.25733
76 1 0.00366363 0.333333 0.253275
100 2 0.985413 0.383333 0.317793
61 1 1.00054 0.583333 0.257866
82 2 0.504292 0.633333 0.318322
75 1 0.742556 0.5 0.286065
98 2 0.75017 0.55 0.352003
85 2 0.247403 0.8 0.352262
63 1 0.250544 0.75 0.285507
86 2 0.494147 0.883333 0.322021
90 2 0.00994571 0.883333 0.318591
65 1 0.994249 0.833333 0.253375
83 2 0.753777 0.8 0.35054
64 1 0.509947 0.833333 0.258029
59 1 0.756145 0.75 0.286989
115 2 0.0103258 0.216667 0.387125
142 2 0.269754 0.216667 0.480022
93 2 0.256107 0.133333 0.418014
112 2 0.486079 0.216667 0.382126
116 2 0.0071888 0.3 0.452224
111 2 0.987873 0.05 0.446333
113 2 0.512467 0.3 0.446342
140 2 0.750808 0.216667 0.480599
89 2 0.741252 0.133333 0.413862
110 2 0.511464 0.05 0.451722
117 2 0.251656 0.383333 0.416051
125 2 0.240257 0.466667 0.481894
103 2 0.255089 0.633333 0.414419
101 2 0.00868776 0.466667 0.381641
118 2 0.486906 0.55 0.451542
119 2 0.0096961 0.55 0.446232
97 2 0.509512 0.466667 0.387042
114 2 0.770265 0.383333 0.415683
124 2 0.756877 0.466667 0.478741
99 2 0.742952 0.633333 0.4176
130 2 0.248121 0.716667 0.480991
109 2 0.227087 0.883333 0.415268
121 2 0.24133 0.966667 0.47858
105 2 0.484868 0.8 0.446385
87 2 0.489276 0.966667 0.387097
104 2 0.509571 0.716667 0.382533
108 2 0.991808 0.8 0.452231
107 2 0.98836 0.716667 0.38673
127 2 0.728189 0.716667 0.47978
106 2 0.74665 0.883333 0.416572
91 2 0.987419 0.966667 0.381776
120 2 0.758249 0.966667 0.482161
143 2 0.25585 0.3 0.544208
139 3 0.25 0.133333 0.60706
123 2 0.0108193 0.133333 0.511743
156 2 0.498895 0.216667 0.579487
138 2 0.249161 0.05 0.544844
158 2 0.00149609 0.216667 0.576703
122 2 0.503336 0.133333 0.516719
141 2 0.743287 0.3 0.545032
135 3 0.75 0.133333 0.60706
134 2 0.761715 0.05 0.544507
159 3 0.25 0.383333 0.60706
151 3 0.25 0.633333 0.60706
150 2 0.237401 0.55 0.544391
145 2 0.495652 0.466667 0.576598
126 2 0.4961 0.633333 0.516762
144 2 0.505837 0.383333 0.511671
149 2 0.999809 0.466667 0.579584
148 2 0.992802 0.383333 0.5167
157 3 0.75 0.383333 0.60706
129 2 0.987701 0.633333 0.511583
147 3 0.75 0.633333 0.60706
146 2 0.75036 0.55 0.544948
131 2 0.255822 0.8 0.545159
155 3 0.25 0.883333 0.60706
136 2 0.00627339 0.883333 0.516688
137 2 0.000101045 0.966667 0.579563
132 2 0.493096 0.883333 0.511833
154 2 0.998283 0.716667 0.57667
152 2 0.500929 0.716667 0.579473
133 2 0.504011 0.966667 0.576653
128 2 0.743677 0.8 0.544173
153 3 0.75 0.883333 0.60706
