ITEM: TIMESTEP
37
ITEM: NUMBER OF ATOMS
159
ITEM: BOX BOUNDS pp pp pp
0.0000000000000000e+00 9.1980450096746083e+00
0.0000000000000000e+00 1.1265258452427979e+01
0.0000000000000000e+00 4.1552468811769650e+01
ITEM: ATOMS id type xs ys zs
6 3 0 0.25 0
24 3 0 0 0
26 1 0.251586 0.166667 0.0292032
27 1 0.255168 0.25 0.0927327
37 1 0.248659 0 0.0938772
21 1 0.5 0.0833333 0.0627993
25 1 1 0.0833333 0.0623073
4 3 0.5 0.25 5.34372e-18
20 3 0.5 0 0
22 1 0.748414 0.166667 0.0292032
23 1 0.744832 0.25 0.0927327
36 1 0.751341 0 0.0938772
7 1 0.247516 0.416667 0.029122
12 3 0 0.5 0
33 1 0.241128 0.5 0.091891
9 1 0.5 0.583333 0.0667677
28 1 0.5 0.333333 0.0615213
13 1 1 0.583333 0.0605624
31 1 1 0.333333 0.0632131
5 1 0.752484 0.416667 0.029122
8 3 0.5 0.5 0
30 1 0.758872 0.5 0.091891
2 3 0 0.75 0
3 1 0.240359 0.916667 0.0313236
14 1 0.27059 0.666667 0.0274563
15 1 0.251476 0.75 0.0935031
16 1 0.5 0.833333 0.0589808
17 1 0.5 0.916667 0.123155
18 1 1 0.833333 0.0637334
1 1 0.759641 0.916667 0.0313236
10 1 0.72941 0.666667 0.0274563
11 1 0.748524 0.75 0.0935031
72 1 0.245474 0.166667 0.222614
70 1 9.98024e-13 0 0.192643
49 1 0.243018 0.0833333 0.158501
53 1 1.34648e-12 0.25 0.189956
39 1 1 0.166667 0.12558
38 1 0.5 0.166667 0.128323
48 1 0.756982 0.0833333 0.158501
68 1 0.754526 0.166667 0.222614
50 1 0.5 0.25 0.192787
66 1 0.5 0 0.187841
41 1 0.247147 0.583333 0.157056
54 1 0.254941 0.333333 0.157667
60 1 1.43471e-12 0.5 0.193058
55 1 0.254372 0.416667 0.222111
29 1 0.5 0.416667 0.125866
32 1 1 0.416667 0.128702
40 1 0.752853 0.583333 0.157056
51 1 0.745059 0.333333 0.157667
52 1 0.745628 0.416667 0.222111
56 1 0.5 0.5 0.190338
45 1 1.67824e-12 0.75 0.188629
46 1 0.255546 0.833333 0.158375
47 1 0.256878 0.916667 0.223239
62 1 0.242788 0.666667 0.221699
19 1 1 0.916667 0.127452
35 1 1 0.666667 0.125821
34 1 0.5 0.666667 0.12965
42 1 0.5 0.75 0.194073
43 1 0.744454 0.833333 0.158375
44 1 0.743122 0.916667 0.223239
58 1 0.757212 0.666667 0.221699
79 1 0.255493 0 0.287675
73 1 0.243709 0.25 0.286888
95 2 0.257259 0.0833333 0.351999
96 2 0.5 0.166667 0.31747
71 1 1 0.0833333 0.256888
100 2 1 0.166667 0.321873
78 1 0.744507 0 0.287675
69 1 0.756291 0.25 0.286888
67 1 0.5 0.0833333 0.252936
94 2 0.742741 0.0833333 0.351999
77 1 0.256928 0.5 0.286623
102 2 0.243624 0.333333 0.351227
85 2 0.255654 0.583333 0.351075
74 1 0.5 0.333333 0.257511
82 2 0.5 0.416667 0.322549
76 1 1 0.333333 0.253979
61 1 1 0.583333 0.258372
84 2 1 0.416667 0.318384
75 1 0.743072 0.5 0.286623
57 1 0.5 0.583333 0.254053
98 2 0.756376 0.333333 0.351227
83 2 0.744346 0.583333 0.351075
65 1 2.48936e-13 0.833333 0.252854
63 1 0.24391 0.75 0.286551
92 2 0.243627 0.833333 0.351177
64 1 0.5 0.833333 0.258414
80 2 0.5 0.916667 0.322535
86 2 0.5 0.666667 0.318521
90 2 1 0.666667 0.322892
81 2 1 0.916667 0.317119
59 1 0.75609 0.75 0.286551
88 2 0.756373 0.833333 0.351177
117 2 0.256508 0.166667 0.416172
116 2 1.96986e-14 0.0833333 0.446438
115 2 6.70138e-14 0 0.381583
101 2 3.55347e-14 0.25 0.386662
142 2 0.243174 0 0.480022
125 2 0.257147 0.25 0.48021
113 2 0.5 0.0833333 0.451666
114 2 0.743492 0.166667 0.416172
112 2 0.5 0 0.387209
97 2 0.5 0.25 0.382523
140 2 0.756826 0 0.480022
124 2 0.742853 0.25 0.48021
119 2 6.65241e-15 0.333333 0.451514
108 2 3.17973e-14 0.583333 0.447393
107 2 1.29393e-14 0.5 0.382984
103 2 0.243644 0.416667 0.415514
130 2 0.242943 0.5 0.479783
118 2 0.5 0.333333 0.447198
105 2 0.5 0.583333 0.452033
104 2 0.5 0.5 0.387141
99 2 0.756356 0.416667 0.415514
127 2 0.757057 0.5 0.479783
109 2 0.257059 0.666667 0.415479
93 2 0.242673 0.916667 0.415708
91 2 6.64344e-14 0.75 0.387552
121 2 0.256848 0.75 0.479824
111 2 1 0.833333 0.452221
110 2 0.5 0.833333 0.447106
106 2 0.742941 0.666667 0.415479
89 2 0.757327 0.916667 0.415708
87 2 0.5 0.75 0.38264
120 2 0.743152 0.75 0.479824
159 3 0.25 0.166667 0.60706
143 2 0.245079 0.0833333 0.544496
156 2 0.5 0 0.576985
145 2 0.5 0.25 0.579122
144 2 0.5 0.166667 0.516336
158 2 1 0 0.579365
149 2 1 0.25 0.576813
148 2 1 0.166667 0.511984
157 3 0.75 0.166667 0.60706
141 2 0.754921 0.0833333 0.544496
152 2 0.5 0.5 0.577313
151 3 0.25 0.416667 0.60706
150 2 0.254323 0.333333 0.544513
131 2 0.245852 0.583333 0.544399
126 2 0.5 0.416667 0.512868
154 2 1 0.5 0.579224
129 2 1 0.416667 0.516337
147 3 0.75 0.416667 0.60706
146 2 0.745677 0.333333 0.544513
128 2 0.754148 0.583333 0.544399
155 3 0.25 0.666667 0.60706
139 3 0.25 0.916667 0.60706
138 2 0.254546 0.833333 0.544424
132 2 0.5 0.666667 0.516558
133 2 0.5 0.75 0.579339
122 2 0.5 0.916667 0.512518
137 2 1 0.75 0.577302
136 2 1 0.666667 0.512997
123 2 1 0.916667 0.516627
153 3 0.75 0.666667 0.60706
135 3 0.75 0.916667 0.60706
134 2 0.745454 0.833333 0.544424
