ITEM: TIMESTEP
877
ITEM: NUMBER OF ATOMS
159
ITEM: BOX BOUNDS pp pp pp
0.0000000000000000e+00 9.1980450096746083e+00
0.0000000000000000e+00 1.1265258452427979e+01
0.0000000000000000e+00 4.1552468811769650e+01
ITEM: ATOMS id type xs ys zs
6 3 0 0.25 0
24 3 0 0 0
26 1 0.248125 0.166667 0.0292248
27 1 0.248083 0.25 0.0945479
37 1 0.247637 0 0.0898514
21 1 0.497192 0.0833333 0.0618883
25 1 0.994291 0.0833333 0.0618382
4 3 0.5 0.25 5.34372e-18
20 3 0.5 0 0
22 1 0.749112 0.166667 0.0266465
23 1 0.74049 0.25 0.0888246
36 1 0.7379 0 0.0941191
39 1 0.979626 0.166667 0.12388
7 1 0.247088 0.416667 0.026396
12 3 0 0.5 0
33 1 0.243389 0.5 0.0881253
28 1 0.488446 0.333333 0.0611439
31 1 0.00266677 0.333333 0.0624133
9 1 0.511594 0.583333 0.0650938
13 1 0.993208 0.583333 0.0601184
5 1 0.750122 0.416667 0.0297731
8 3 0.5 0.5 0
30 1 0.761031 0.5 0.0942494
2 3 0 0.75 0
3 1 0.244896 0.916667 0.028034
14 1 0.272366 0.666667 0.0278499
15 1 0.24824 0.75 0.0928981
18 1 1.00559 0.833333 0.0624109
17 1 0.48449 0.916667 0.122879
16 1 0.500416 0.833333 0.0588663
1 1 0.759051 0.916667 0.0312009
10 1 0.728414 0.666667 0.0238616
11 1 0.755492 0.75 0.0905288
72 1 0.238919 0.166667 0.215789
49 1 0.230187 0.0833333 0.152682
66 1 0.475699 0 0.184723
70 1 0.00514828 0 0.193422
53 1 0.988424 0.25 0.186277
38 1 0.501659 0.166667 0.127568
48 1 0.750331 0.0833333 0.161429
68 1 0.766548 0.166667 0.227643
50 1 0.510548 0.25 0.192851
41 1 0.251929 0.583333 0.152988
54 1 0.256592 0.333333 0.160537
55 1 0.259023 0.416667 0.227828
60 1 0.00861952 0.5 0.191736
32 1 0.00969727 0.416667 0.127309
56 1 0.48803 0.5 0.18798
29 1 0.492305 0.416667 0.124327
40 1 0.743385 0.583333 0.158616
51 1 0.742385 0.333333 0.152845
52 1 0.743998 0.416667 0.215201
46 1 0.237992 0.833333 0.159725
47 1 0.263585 0.916667 0.227717
62 1 0.227891 0.666667 0.215241
34 1 0.501136 0.666667 0.126658
35 1 0.998463 0.666667 0.125668
19 1 0.992075 0.916667 0.126021
42 1 0.500728 0.75 0.192931
45 1 0.971153 0.75 0.186935
43 1 0.734621 0.833333 0.153233
44 1 0.726742 0.916667 0.216158
58 1 0.754691 0.666667 0.22768
67 1 0.489387 0.0833333 0.24905
65 1 0.982173 0.833333 0.249708
76 1 0.986778 0.333333 0.249724
79 1 0.242095 0 0.293769
73 1 0.273874 0.25 0.280117
95 2 0.229097 0.183333 0.349683
71 1 0.0286196 0.0833333 0.257137
100 2 0.0177323 0.266667 0.31235
106 2 0.776276 0.766667 0.42053
96 2 0.485186 0.266667 0.326377
81 2 0.988209 0.0166667 0.326208
78 1 0.771533 0 0.280491
69 1 0.740537 0.25 0.294279
94 2 0.772868 0.183333 0.35694
80 2 0.516043 0.0166667 0.312498
77 1 0.233222 0.5 0.294538
102 2 0.26382 0.433333 0.357305
57 1 0.475725 0.583333 0.250276
61 1 0.0211712 0.583333 0.257429
82 2 0.509989 0.516667 0.312766
87 2 0.523645 0.85 0.391086
74 1 0.52999 0.333333 0.256457
84 2 0.976981 0.516667 0.326557
75 1 0.764157 0.5 0.280246
98 2 0.721405 0.433333 0.350196
85 2 0.224132 0.683333 0.349239
63 1 0.263159 0.75 0.280712
92 2 0.270492 0.933333 0.356823
90 2 0.00919127 0.766667 0.31304
83 2 0.762659 0.683333 0.357211
86 2 0.481789 0.766667 0.326414
64 1 0.520822 0.833333 0.258111
59 1 0.736294 0.75 0.293888
88 2 0.730241 0.933333 0.348861
110 2 0.513677 0.933333 0.45411
117 2 0.241801 0.266667 0.414803
115 2 0.0206312 0.1 0.391471
142 2 0.259614 0.1 0.48135
113 2 0.50662 0.183333 0.446973
112 2 0.495611 0.1 0.378669
116 2 0.00335414 0.183333 0.454061
93 2 0.277758 0.0166667 0.41952
114 2 0.766207 0.266667 0.419624
140 2 0.748453 0.1 0.480695
89 2 0.749066 0.0166667 0.414326
125 2 0.245532 0.35 0.479818
103 2 0.265833 0.516667 0.420798
130 2 0.270129 0.6 0.482917
107 2 0.0155439 0.6 0.390853
104 2 0.485169 0.6 0.379235
119 2 -0.00192031 0.433333 0.446271
97 2 0.509962 0.35 0.391474
101 2 0.990164 0.35 0.378848
124 2 0.760769 0.35 0.482531
118 2 0.510439 0.433333 0.453978
99 2 0.742647 0.516667 0.413923
127 2 0.750985 0.6 0.479685
108 2 0.0189001 0.683333 0.454054
109 2 0.247106 0.766667 0.413442
121 2 0.255977 0.85 0.480407
91 2 0.990038 0.85 0.378984
111 2 0.0132648 0.933333 0.446761
120 2 0.769159 0.85 0.481839
105 2 0.50404 0.683333 0.445988
159 3 0.25 0.266667 0.60706
143 2 0.256714 0.183333 0.545317
158 2 -0.000376431 0.1 0.577534
148 2 0.00376674 0.266667 0.517784
139 3 0.25 0.0166667 0.60706
144 2 0.499725 0.266667 0.512705
122 2 0.499918 0.0166667 0.517371
156 2 0.500518 0.1 0.580182
157 3 0.75 0.266667 0.60706
141 2 0.74493 0.183333 0.544603
123 2 1.00549 0.0166667 0.513374
135 3 0.75 0.0166667 0.60706
149 2 1.00082 0.35 0.580343
151 3 0.25 0.516667 0.60706
150 2 0.248545 0.433333 0.544787
129 2 0.00565377 0.516667 0.512385
152 2 0.500261 0.6 0.580185
154 2 0.00347935 0.6 0.577314
145 2 0.501718 0.35 0.577424
126 2 0.507854 0.516667 0.517934
147 3 0.75 0.516667 0.60706
146 2 0.760738 0.433333 0.545396
131 2 0.259598 0.683333 0.545213
155 3 0.25 0.766667 0.60706
138 2 0.247544 0.933333 0.54488
133 2 0.50121 0.85 0.577383
136 2 1.00494 0.766667 0.517429
137 2 -0.000146725 0.85 0.580028
128 2 0.75219 0.683333 0.545028
132 2 0.511694 0.766667 0.513015
153 3 0.75 0.766667 0.60706
134 2 0.756218 0.933333 0.545082
