ITEM: TIMESTEP
794
ITEM: NUMBER OF ATOMS
159
ITEM: BOX BOUNDS pp pp pp
0.0000000000000000e+00 9.1980450096746083e+00
0.0000000000000000e+00 1.1265258452427979e+01
0.0000000000000000e+00 4.1552468811769650e+01
ITEM: ATOMS id type xs ys zs
6 3 0 0.25 0
24 3 0 0 0
26 1 0.249195 0.166667 0.0292697
27 1 0.252391 0.25 0.0941224
37 1 0.246296 0 0.0902997
21 1 0.499021 0.0833333 0.06191
25 1 0.994395 0.0833333 0.0618726
4 3 0.5 0.25 5.34372e-18
20 3 0.5 0 0
22 1 0.748918 0.166667 0.0267097
23 1 0.742393 0.25 0.0888158
36 1 0.742369 0 0.0946688
7 1 0.247363 0.416667 0.0265934
12 3 0 0.5 0
33 1 0.244427 0.5 0.0886153
28 1 0.491595 0.333333 0.0614582
31 1 0.00436839 0.333333 0.0627625
9 1 0.507597 0.583333 0.0666066
13 1 0.997325 0.583333 0.060168
5 1 0.751342 0.416667 0.0287693
8 3 0.5 0.5 0
30 1 0.762067 0.5 0.0920148
2 3 0 0.75 0
3 1 0.242895 0.916667 0.0287575
14 1 0.273381 0.666667 0.0272162
15 1 0.246716 0.75 0.0923306
18 1 0.000471838 0.833333 0.0628392
17 1 0.485783 0.916667 0.122117
16 1 0.499936 0.833333 0.0586948
1 1 0.758024 0.916667 0.0314202
10 1 0.728496 0.666667 0.0250235
11 1 0.750784 0.75 0.0916301
72 1 0.250325 0.166667 0.215874
49 1 0.234395 0.0833333 0.153469
66 1 0.486689 0 0.184296
70 1 0.00614253 0 0.193467
53 1 0.995614 0.25 0.188423
39 1 0.986496 0.166667 0.124293
38 1 0.504793 0.166667 0.127408
48 1 0.757539 0.0833333 0.161408
68 1 0.761593 0.166667 0.226779
50 1 0.514051 0.25 0.191988
41 1 0.24535 0.583333 0.153253
54 1 0.257742 0.333333 0.158994
55 1 0.241864 0.416667 0.225904
60 1 0.00301832 0.5 0.192618
32 1 0.00854816 0.416667 0.12816
56 1 0.480507 0.5 0.191248
29 1 0.496424 0.416667 0.125954
40 1 0.742444 0.583333 0.156701
51 1 0.748695 0.333333 0.152394
52 1 0.742616 0.416667 0.214457
46 1 0.243952 0.833333 0.159333
47 1 0.268067 0.916667 0.22558
62 1 0.228403 0.666667 0.215991
35 1 0.994898 0.666667 0.125738
19 1 0.995329 0.916667 0.126512
42 1 0.503415 0.75 0.194957
34 1 0.495043 0.666667 0.129085
45 1 0.97423 0.75 0.187237
43 1 0.733889 0.833333 0.154433
44 1 0.730576 0.916667 0.218916
58 1 0.753934 0.666667 0.224541
79 1 0.247144 0 0.292175
73 1 0.261234 0.25 0.28071
95 2 0.224213 0.175 0.350898
71 1 0.0289065 0.0833333 0.25613
100 2 0.00701137 0.258333 0.314537
67 1 0.493708 0.0833333 0.250333
81 2 0.994393 0.00833333 0.326249
96 2 0.478591 0.258333 0.325688
78 1 0.77506 0 0.281435
69 1 0.732318 0.25 0.292757
94 2 0.760704 0.175 0.356135
80 2 0.520882 0.00833333 0.314018
77 1 0.24464 0.5 0.289906
102 2 0.252892 0.425 0.356047
57 1 0.477657 0.583333 0.253996
61 1 0.00877673 0.583333 0.25976
82 2 0.501705 0.508333 0.318215
76 1 0.975139 0.333333 0.252497
74 1 0.515801 0.333333 0.256268
84 2 0.993012 0.508333 0.324462
75 1 0.74603 0.5 0.280423
98 2 0.737948 0.425 0.347505
85 2 0.243657 0.675 0.346585
63 1 0.25301 0.75 0.282292
92 2 0.280879 0.925 0.35431
90 2 0.00343591 0.758333 0.317872
83 2 0.768375 0.675 0.353666
86 2 0.506433 0.758333 0.325603
64 1 0.511048 0.833333 0.260118
120 2 0.756338 0.841667 0.480593
59 1 0.751666 0.75 0.287803
88 2 0.738695 0.925 0.35006
117 2 0.245932 0.258333 0.413658
115 2 1.00227 0.0916667 0.391369
142 2 0.260243 0.0916667 0.48241
113 2 0.493785 0.175 0.446208
112 2 0.494115 0.0916667 0.380113
116 2 0.0123953 0.175 0.453512
93 2 0.259005 0.00833333 0.418112
114 2 0.76013 0.258333 0.421071
140 2 0.746067 0.0916667 0.479672
89 2 0.739656 0.00833333 0.415164
125 2 0.250239 0.341667 0.479682
103 2 0.275994 0.508333 0.420031
130 2 0.266939 0.591667 0.481484
107 2 0.0244484 0.591667 0.389873
104 2 0.493129 0.591667 0.381645
97 2 0.516824 0.341667 0.388472
101 2 0.984396 0.341667 0.381415
124 2 0.771224 0.341667 0.482985
119 2 0.00404004 0.425 0.446278
118 2 0.519036 0.425 0.453219
99 2 0.746328 0.508333 0.412112
127 2 0.759603 0.591667 0.479127
108 2 0.0130032 0.675 0.453402
109 2 0.251408 0.758333 0.413888
121 2 0.247247 0.841667 0.479356
91 2 0.0107572 0.841667 0.381079
105 2 0.514486 0.675 0.448834
111 2 1.00066 0.925 0.448642
87 2 0.515674 0.841667 0.392142
110 2 0.50163 0.925 0.454287
106 2 0.778566 0.758333 0.41665
65 1 -0.00282276 0.833333 0.250523
159 3 0.25 0.258333 0.60706
143 2 0.260924 0.175 0.545268
158 2 0.00203168 0.0916667 0.577679
148 2 0.00814069 0.258333 0.517719
144 2 0.50607 0.258333 0.511974
139 3 0.25 0.00833333 0.60706
122 2 0.505096 0.00833333 0.517923
156 2 0.500615 0.0916667 0.580286
157 3 0.75 0.258333 0.60706
141 2 0.74897 0.175 0.544886
123 2 0.998757 0.00833333 0.513339
135 3 0.75 0.00833333 0.60706
149 2 0.000509453 0.341667 0.579745
151 3 0.25 0.508333 0.60706
150 2 0.254652 0.425 0.544835
129 2 0.0108784 0.508333 0.51374
152 2 0.500065 0.591667 0.579484
154 2 0.999811 0.591667 0.577696
145 2 0.503566 0.341667 0.577043
126 2 0.505854 0.508333 0.516407
147 3 0.75 0.508333 0.60706
146 2 0.75759 0.425 0.54518
131 2 0.253595 0.675 0.545111
155 3 0.25 0.758333 0.60706
138 2 0.245947 0.925 0.544247
133 2 0.499979 0.841667 0.578396
136 2 1.00043 0.758333 0.516926
128 2 0.74795 0.675 0.544142
132 2 0.500566 0.758333 0.514884
137 2 1.00053 0.841667 0.57997
153 3 0.75 0.758333 0.60706
134 2 0.756428 0.925 0.545086
