ITEM: TIMESTEP
79
ITEM: NUMBER OF ATOMS
159
ITEM: BOX BOUNDS pp pp pp
0.0000000000000000e+00 9.1980450096746083e+00
0.0000000000000000e+00 1.1265258452427979e+01
0.0000000000000000e+00 4.1552468811769650e+01
ITEM: ATOMS id type xs ys zs
6 3 0 0.25 0
24 3 0 0 0
26 1 0.2515 0.166667 0.0289754
27 1 0.255329 0.25 0.0924642
37 1 0.248996 0 0.0934939
21 1 0.5 0.0833333 0.0628327
25 1 1 0.0833333 0.0624569
4 3 0.5 0.25 5.34372e-18
20 3 0.5 0 0
22 1 0.7485 0.166667 0.0289754
23 1 0.744671 0.25 0.0924642
36 1 0.751004 0 0.093494
7 1 0.24741 0.416667 0.0290602
12 3 0 0.5 0
33 1 0.241039 0.5 0.0918442
9 1 0.5 0.583333 0.0668324
28 1 0.5 0.333333 0.0616101
13 1 1 0.583333 0.0606382
31 1 1 0.333333 0.0632388
5 1 0.752591 0.416667 0.0290603
8 3 0.5 0.5 0
30 1 0.758962 0.5 0.0918441
2 3 0 0.75 0
3 1 0.240313 0.916667 0.0310603
14 1 0.271171 0.666667 0.0273409
15 1 0.25083 0.75 0.0932659
16 1 0.5 0.833333 0.0592834
17 1 0.5 0.916667 0.123601
18 1 1 0.833333 0.0638325
1 1 0.759686 0.916667 0.0310603
10 1 0.728829 0.666667 0.0273409
11 1 0.74917 0.75 0.093266
72 1 0.248615 0.166667 0.222169
70 1 -9.52838e-09 0 0.19275
49 1 0.243392 0.0833333 0.158062
53 1 -2.54672e-08 0.25 0.190878
39 1 1.93372e-08 0.166667 0.125934
38 1 0.5 0.166667 0.128481
48 1 0.756608 0.0833333 0.158062
68 1 0.751385 0.166667 0.222169
50 1 0.5 0.25 0.19256
66 1 0.5 0 0.188873
41 1 0.248189 0.583333 0.156987
54 1 0.253886 0.333333 0.157321
60 1 -1.48296e-08 0.5 0.192508
55 1 0.251336 0.416667 0.22181
29 1 0.5 0.416667 0.126307
32 1 1 0.416667 0.128551
40 1 0.751811 0.583333 0.156987
51 1 0.746115 0.333333 0.157321
52 1 0.748664 0.416667 0.22181
56 1 0.5 0.5 0.19135
45 1 -4.34789e-08 0.75 0.189779
46 1 0.255375 0.833333 0.157942
47 1 0.254062 0.916667 0.222673
62 1 0.245034 0.666667 0.221603
19 1 1 0.916667 0.127675
35 1 1 0.666667 0.126539
34 1 0.5 0.666667 0.129523
42 1 0.5 0.75 0.193731
43 1 0.744625 0.833333 0.157942
44 1 0.745938 0.916667 0.222673
58 1 0.754966 0.666667 0.221603
79 1 0.252901 0 0.286702
73 1 0.246671 0.25 0.28628
95 2 0.25448 0.1 0.351368
96 2 0.5 0.183333 0.319013
67 1 0.5 0.0833333 0.254501
71 1 1 0.0833333 0.256224
100 2 1 0.183333 0.32164
78 1 0.747099 0 0.286702
69 1 0.753329 0.25 0.28628
94 2 0.74552 0.1 0.351368
77 1 0.253768 0.5 0.286082
102 2 0.246145 0.35 0.351009
85 2 0.253034 0.6 0.350973
82 2 0.5 0.433333 0.321849
76 1 3.17019e-08 0.333333 0.255279
74 1 0.5 0.333333 0.256484
61 1 1 0.583333 0.256916
84 2 1 0.433333 0.319545
75 1 0.746232 0.5 0.286082
57 1 0.5 0.583333 0.2554
98 2 0.753855 0.35 0.351009
83 2 0.746966 0.6 0.350973
65 1 -1.68903e-08 0.833333 0.254739
63 1 0.246865 0.75 0.286177
92 2 0.246141 0.85 0.351196
64 1 0.5 0.833333 0.257146
80 2 0.5 0.933333 0.321629
86 2 0.5 0.683333 0.319871
90 2 1 0.683333 0.32174
81 2 1 0.933333 0.319063
59 1 0.753135 0.75 0.286177
88 2 0.753859 0.85 0.351196
117 2 0.25588 0.183333 0.41562
116 2 -5.50844e-09 0.1 0.447098
115 2 1.0649e-08 0.0166667 0.382717
101 2 -2.97374e-09 0.266667 0.386449
142 2 0.243456 0.0166667 0.479904
125 2 0.25668 0.266667 0.479893
113 2 0.5 0.1 0.451475
114 2 0.74412 0.183333 0.41562
112 2 0.5 0.0166667 0.386523
97 2 0.5 0.266667 0.382998
140 2 0.756544 0.0166667 0.479904
124 2 0.74332 0.266667 0.479893
108 2 -4.57126e-09 0.6 0.447347
107 2 6.56193e-09 0.516667 0.383263
103 2 0.244411 0.433333 0.415334
130 2 0.243211 0.516667 0.479735
119 2 1 0.35 0.451514
118 2 0.5 0.35 0.447308
105 2 0.5 0.6 0.451733
104 2 0.5 0.516667 0.386537
99 2 0.755589 0.433333 0.415334
127 2 0.756789 0.516667 0.479735
109 2 0.256109 0.683333 0.415363
93 2 0.243649 0.933333 0.415552
91 2 -1.46771e-09 0.766667 0.386629
121 2 0.256589 0.766667 0.479785
111 2 1 0.85 0.451702
110 2 0.5 0.85 0.44729
106 2 0.743891 0.683333 0.415363
89 2 0.756351 0.933333 0.415552
87 2 0.5 0.766667 0.383195
120 2 0.743411 0.766667 0.479785
159 3 0.25 0.183333 0.60706
143 2 0.245729 0.1 0.544424
156 2 0.5 0.0166667 0.577073
145 2 0.5 0.266667 0.57905
144 2 0.5 0.183333 0.516199
158 2 1 0.0166667 0.579122
149 2 1 0.266667 0.577078
148 2 1 0.183333 0.512564
157 3 0.75 0.183333 0.60706
141 2 0.754271 0.1 0.544424
152 2 0.5 0.516667 0.577241
151 3 0.25 0.433333 0.60706
150 2 0.254119 0.35 0.544406
131 2 0.245958 0.6 0.544369
126 2 0.5 0.433333 0.512835
154 2 1 0.516667 0.579127
129 2 1 0.433333 0.516282
147 3 0.75 0.433333 0.60706
146 2 0.745881 0.35 0.544406
128 2 0.754042 0.6 0.544369
155 3 0.25 0.683333 0.60706
139 3 0.25 0.933333 0.60706
138 2 0.254179 0.85 0.54439
132 2 0.5 0.683333 0.516359
133 2 0.5 0.766667 0.579172
122 2 0.5 0.933333 0.51267
137 2 1 0.766667 0.577189
136 2 1 0.683333 0.512844
123 2 1 0.933333 0.516302
153 3 0.75 0.683333 0.60706
135 3 0.75 0.933333 0.60706
134 2 0.745821 0.85 0.54439
