ITEM: TIMESTEP
1257
ITEM: NUMBER OF ATOMS
159
ITEM: BOX BOUNDS pp pp pp
0.0000000000000000e+00 9.1980450096746083e+00
0.0000000000000000e+00 1.1265258452427979e+01
0.0000000000000000e+00 4.1552468811769650e+01
ITEM: ATOMS id type xs ys zs
6 3 0 0.25 0
24 3 0 0 0
26 1 0.249955 0.166667 0.0296603
27 1 0.260483 0.25 0.0950156
37 1 0.24773 0 0.0903544
21 1 0.501984 0.0833333 0.0618751
25 1 0.994904 0.0833333 0.061751
4 3 0.5 0.25 5.34372e-18
20 3 0.5 0 0
22 1 0.748891 0.166667 0.0268242
23 1 0.745979 0.25 0.089176
36 1 0.747781 0 0.0940337
39 1 0.995065 0.166667 0.124253
7 1 0.247461 0.416667 0.0265328
12 3 0 0.5 0
33 1 0.251657 0.5 0.0885253
28 1 0.494334 0.333333 0.0610401
31 1 0.009661 0.333333 0.0628541
9 1 0.517666 0.583333 0.065545
13 1 0.999954 0.583333 0.0601877
5 1 0.753866 0.416667 0.0300738
8 3 0.5 0.5 0
30 1 0.769285 0.5 0.0944326
2 3 0 0.75 0
3 1 0.244809 0.916667 0.0286304
14 1 0.277881 0.666667 0.0279374
15 1 0.24601 0.75 0.0928414
18 1 0.00292583 0.833333 0.062092
17 1 0.488411 0.916667 0.122455
16 1 0.502817 0.833333 0.0593283
1 1 0.757497 0.916667 0.0308469
10 1 0.731463 0.666667 0.0243168
11 1 0.758132 0.75 0.0912288
72 1 0.268195 0.166667 0.218084
49 1 0.245409 0.0833333 0.153947
66 1 0.495947 0 0.185334
70 1 0.0200587 0 0.191157
53 1 0.00743805 0.25 0.189587
67 1 0.507377 0.0833333 0.251022
38 1 0.515367 0.166667 0.126743
48 1 0.767482 0.0833333 0.1603
68 1 0.761648 0.166667 0.223607
50 1 0.52099 0.25 0.189201
41 1 0.255708 0.583333 0.154188
54 1 0.262464 0.333333 0.159698
55 1 0.239351 0.416667 0.225252
60 1 0.00269509 0.5 0.190479
32 1 0.0198004 0.416667 0.127262
56 1 0.488439 0.5 0.190633
29 1 0.504001 0.416667 0.125569
40 1 0.738483 0.583333 0.158786
51 1 0.762109 0.333333 0.153975
52 1 0.752924 0.416667 0.217008
46 1 0.252774 0.833333 0.159624
47 1 0.274315 0.916667 0.226168
62 1 0.233199 0.666667 0.21673
34 1 0.498635 0.666667 0.12663
35 1 0.000738543 0.666667 0.12645
58 1 0.761925 0.666667 0.227544
65 1 0.998752 0.833333 0.250437
19 1 1.00286 0.916667 0.125962
42 1 0.510216 0.75 0.19335
45 1 0.978184 0.75 0.187251
43 1 0.738039 0.833333 0.153767
44 1 0.746132 0.916667 0.217817
79 1 0.243177 0 0.289565
73 1 0.270831 0.25 0.282956
95 2 0.242887 0.241667 0.354271
71 1 0.0295445 0.0833333 0.252347
100 2 0.0226145 0.325 0.317523
96 2 0.488278 0.325 0.323188
81 2 0.00391325 0.075 0.323209
78 1 0.782648 0 0.282986
69 1 0.73397 0.25 0.2895
94 2 0.777118 0.241667 0.353507
80 2 0.500424 0.075 0.314918
77 1 0.253757 0.5 0.290876
102 2 0.25121 0.491667 0.354421
61 1 0.0206941 0.583333 0.258324
57 1 0.47751 0.583333 0.252241
82 2 0.512973 0.575 0.317611
74 1 0.515965 0.333333 0.252057
84 2 0.972203 0.575 0.324213
75 1 0.750305 0.5 0.28335
98 2 0.72707 0.491667 0.35476
76 1 0.981774 0.333333 0.253714
85 2 0.222737 0.741667 0.351905
63 1 0.265533 0.75 0.284149
92 2 0.271425 0.991667 0.355098
90 2 0.00827609 0.825 0.315217
86 2 0.481105 0.825 0.323751
83 2 0.749566 0.741667 0.355994
64 1 0.526417 0.833333 0.257148
59 1 0.747605 0.75 0.291657
88 2 0.730392 0.991667 0.348463
117 2 0.238027 0.325 0.418169
115 2 0.00887691 0.158333 0.389704
142 2 0.253062 0.158333 0.480111
93 2 0.273043 0.075 0.417025
113 2 0.504094 0.241667 0.446588
112 2 0.513736 0.158333 0.380519
116 2 0.988301 0.241667 0.452634
114 2 0.75175 0.325 0.416344
140 2 0.739281 0.158333 0.481094
89 2 0.752263 0.075 0.415994
125 2 0.231806 0.408333 0.480443
103 2 0.249167 0.575 0.419274
130 2 0.26379 0.658333 0.482783
107 2 -0.00407149 0.658333 0.389594
104 2 0.480898 0.658333 0.381671
97 2 0.485815 0.408333 0.388387
119 2 0.984223 0.491667 0.447423
101 2 1.00182 0.408333 0.383561
124 2 0.750242 0.408333 0.482144
118 2 0.498023 0.491667 0.452618
99 2 0.728971 0.575 0.416281
127 2 0.743095 0.658333 0.480047
108 2 0.0135632 0.741667 0.4535
109 2 0.239938 0.825 0.414214
121 2 0.253526 0.908333 0.481052
111 2 0.0146994 0.991667 0.447019
105 2 0.493083 0.741667 0.446685
106 2 0.768684 0.825 0.420024
87 2 0.518346 0.908333 0.390223
110 2 0.505702 0.991667 0.453449
91 2 0.985238 0.908333 0.379265
120 2 0.76531 0.908333 0.481176
159 3 0.25 0.325 0.60706
143 2 0.252548 0.241667 0.545344
148 2 -0.000795528 0.325 0.517592
139 3 0.25 0.075 0.60706
144 2 0.489095 0.325 0.511571
122 2 0.494457 0.075 0.51744
123 2 1.00106 0.075 0.512541
158 2 0.996808 0.158333 0.577213
156 2 0.500213 0.158333 0.580234
157 3 0.75 0.325 0.60706
141 2 0.738769 0.241667 0.54437
135 3 0.75 0.075 0.60706
149 2 0.000653322 0.408333 0.580063
151 3 0.25 0.575 0.60706
150 2 0.245586 0.491667 0.544838
129 2 -0.00173021 0.575 0.512935
154 2 0.00309057 0.658333 0.57747
152 2 0.499971 0.658333 0.57976
145 2 0.500093 0.408333 0.576897
126 2 0.506028 0.575 0.517236
147 3 0.75 0.575 0.60706
146 2 0.757609 0.491667 0.545407
131 2 0.258173 0.741667 0.545025
155 3 0.25 0.825 0.60706
138 2 0.242282 0.991667 0.544907
136 2 0.0019888 0.825 0.51706
133 2 0.499781 0.908333 0.577383
137 2 0.999323 0.908333 0.57989
128 2 0.750737 0.741667 0.545243
132 2 0.509793 0.825 0.513248
153 3 0.75 0.825 0.60706
134 2 0.754471 0.991667 0.544894
