ITEM: TIMESTEP
1502
ITEM: NUMBER OF ATOMS
159
ITEM: BOX BOUNDS pp pp pp
0.0000000000000000e+00 9.1980450096746083e+00
0.0000000000000000e+00 1.1265258452427979e+01
0.0000000000000000e+00 4.1552468811769650e+01
ITEM: ATOMS id type xs ys zs
6 3 0 0.25 0
24 3 0 0 0
26 1 0.253012 0.166667 0.0300891
27 1 0.264534 0.25 0.0952182
37 1 0.249847 0 0.0909009
21 1 0.507785 0.0833333 0.0626523
25 1 0.997802 0.0833333 0.0621068
4 3 0.5 0.25 5.34372e-18
20 3 0.5 0 0
22 1 0.748847 0.166667 0.0271987
23 1 0.75127 0.25 0.0898648
36 1 0.757656 0 0.0954999
7 1 0.248005 0.416667 0.027129
12 3 0 0.5 0
33 1 0.249203 0.5 0.0891882
28 1 0.498759 0.333333 0.0614016
31 1 0.0103794 0.333333 0.0629415
13 1 0.997288 0.583333 0.0608663
9 1 0.507929 0.583333 0.0660596
5 1 0.754745 0.416667 0.0298623
8 3 0.5 0.5 0
30 1 0.758758 0.5 0.0935947
2 3 0 0.75 0
3 1 0.24274 0.916667 0.0292362
14 1 0.271874 0.666667 0.0276146
15 1 0.247984 0.75 0.0935225
18 1 0.0030872 0.833333 0.0629844
17 1 0.495174 0.916667 0.122718
16 1 0.498199 0.833333 0.059309
1 1 0.758388 0.916667 0.0318371
10 1 0.729191 0.666667 0.0258132
11 1 0.752016 0.75 0.0918853
39 1 0.00235102 0.166667 0.125853
72 1 0.258884 0.166667 0.2214
49 1 0.258651 0.0833333 0.155277
70 1 0.0226869 0 0.191474
53 1 0.00080419 0.25 0.191821
66 1 0.505261 0 0.188975
38 1 0.521868 0.166667 0.127766
48 1 0.767844 0.0833333 0.160761
68 1 0.745307 0.166667 0.223504
50 1 0.504158 0.25 0.190345
41 1 0.248271 0.583333 0.154267
54 1 0.247312 0.333333 0.159903
55 1 0.247902 0.416667 0.22409
60 1 0.00251034 0.5 0.191178
32 1 0.010178 0.416667 0.126183
56 1 0.487841 0.5 0.191096
29 1 0.498506 0.416667 0.127314
40 1 0.745557 0.583333 0.158794
51 1 0.761302 0.333333 0.155252
52 1 0.744114 0.416667 0.219555
46 1 0.263913 0.833333 0.159848
47 1 0.265468 0.916667 0.22423
62 1 0.245124 0.666667 0.21924
19 1 0.0124276 0.916667 0.127375
35 1 0.992271 0.666667 0.126728
34 1 0.5025 0.666667 0.128069
44 1 0.760775 0.916667 0.221485
58 1 0.764913 0.666667 0.224118
43 1 0.744155 0.833333 0.155669
42 1 0.514808 0.75 0.193384
45 1 0.994428 0.75 0.188691
79 1 0.243896 0 0.28682
73 1 0.249563 0.25 0.284949
95 2 0.253695 0.283333 0.350842
71 1 -0.000914512 0.0833333 0.254836
81 2 0.0040226 0.116667 0.321281
80 2 0.494838 0.116667 0.319087
92 2 0.25692 0.0333333 0.352763
78 1 0.753496 0 0.285849
69 1 0.749 0.25 0.287484
94 2 0.770873 0.283333 0.352504
67 1 0.501486 0.0833333 0.254668
88 2 0.742365 0.0333333 0.350363
100 2 0.00823064 0.366667 0.318969
77 1 0.262548 0.5 0.287048
102 2 0.255657 0.533333 0.351219
61 1 0.0143523 0.583333 0.256773
84 2 0.00323144 0.616667 0.321304
57 1 0.500883 0.583333 0.254289
96 2 0.509955 0.366667 0.321582
82 2 0.512867 0.616667 0.320185
74 1 0.504102 0.333333 0.255534
75 1 0.753764 0.5 0.284753
98 2 0.758625 0.533333 0.351444
76 1 0.988954 0.333333 0.254176
85 2 0.24007 0.783333 0.351084
63 1 0.261107 0.75 0.285541
86 2 0.49547 0.866667 0.321191
65 1 0.00925589 0.833333 0.253938
90 2 0.99926 0.866667 0.319178
83 2 0.747658 0.783333 0.352295
64 1 0.51485 0.833333 0.255773
59 1 0.756978 0.75 0.286902
115 2 0.0172585 0.2 0.386443
142 2 0.25745 0.2 0.478548
93 2 0.2722 0.116667 0.416312
111 2 0.0109339 0.0333333 0.446312
113 2 0.513986 0.283333 0.44681
112 2 0.507826 0.2 0.382152
116 2 0.990554 0.283333 0.450355
140 2 0.747154 0.2 0.481892
89 2 0.75468 0.116667 0.415494
110 2 0.512762 0.0333333 0.451994
117 2 0.25462 0.366667 0.416756
125 2 0.227829 0.45 0.479272
103 2 0.249222 0.616667 0.41669
97 2 0.496584 0.45 0.385037
101 2 0.0134905 0.45 0.383414
118 2 0.495033 0.533333 0.451463
114 2 0.754968 0.366667 0.414259
119 2 0.985467 0.533333 0.446315
124 2 0.751376 0.45 0.481095
99 2 0.731896 0.616667 0.414734
130 2 0.261984 0.7 0.482199
104 2 0.490105 0.7 0.382615
108 2 0.0132031 0.783333 0.452162
109 2 0.241069 0.866667 0.413678
121 2 0.253843 0.95 0.480025
105 2 0.490728 0.783333 0.446353
107 2 0.993807 0.7 0.386196
127 2 0.741085 0.7 0.47838
106 2 0.761269 0.866667 0.417839
87 2 0.511412 0.95 0.38691
91 2 0.991025 0.95 0.38171
120 2 0.769839 0.95 0.480383
143 2 0.252214 0.283333 0.544937
139 3 0.25 0.116667 0.60706
122 2 0.493645 0.116667 0.516231
123 2 0.00956119 0.116667 0.511151
156 2 0.499699 0.2 0.579519
138 2 0.245219 0.0333333 0.545044
158 2 0.995301 0.2 0.576139
141 2 0.735594 0.283333 0.544274
135 3 0.75 0.116667 0.60706
134 2 0.756864 0.0333333 0.544102
159 3 0.25 0.366667 0.60706
144 2 0.487903 0.366667 0.511077
149 2 0.00115109 0.45 0.579308
151 3 0.25 0.616667 0.60706
150 2 0.244446 0.533333 0.544097
145 2 0.498447 0.45 0.57668
148 2 0.996909 0.366667 0.516657
157 3 0.75 0.366667 0.60706
129 2 0.994629 0.616667 0.512111
126 2 0.507234 0.616667 0.516529
147 3 0.75 0.616667 0.60706
146 2 0.756413 0.533333 0.545182
154 2 0.0038229 0.7 0.576878
131 2 0.260749 0.783333 0.544575
155 3 0.25 0.866667 0.60706
136 2 0.00532154 0.866667 0.516618
152 2 0.500257 0.7 0.579268
133 2 0.502478 0.95 0.576656
137 2 0.998958 0.95 0.57945
128 2 0.750922 0.783333 0.544677
132 2 0.510359 0.866667 0.512268
153 3 0.75 0.866667 0.60706
