ITEM: TIMESTEP
269
ITEM: NUMBER OF ATOMS
159
ITEM: BOX BOUNDS pp pp pp
0.0000000000000000e+00 9.1980450096746083e+00
0.0000000000000000e+00 1.1265258452427979e+01
0.0000000000000000e+00 4.1552468811769650e+01
ITEM: ATOMS id type xs ys zs
6 3 0 0.25 0
24 3 0 0 0
26 1 0.248613 0.166667 0.0298431
27 1 0.254745 0.25 0.0949134
37 1 0.255147 0 0.0905181
21 1 0.502809 0.0833333 0.0624078
25 1 0.994897 0.0833333 0.0631235
4 3 0.5 0.25 5.34372e-18
20 3 0.5 0 0
22 1 0.749935 0.166667 0.0275007
23 1 0.742648 0.25 0.0903928
36 1 0.737999 0 0.0960226
7 1 0.247029 0.416667 0.0274255
12 3 0 0.5 0
33 1 0.248662 0.5 0.0893508
28 1 0.491562 0.333333 0.0616019
31 1 0.00596343 0.333333 0.0629954
9 1 0.517745 0.583333 0.0656985
13 1 0.998829 0.583333 0.0607138
5 1 0.752232 0.416667 0.0309711
8 3 0.5 0.5 0
30 1 0.771087 0.5 0.0960389
2 3 0 0.75 0
3 1 0.245243 0.916667 0.0282497
14 1 0.276538 0.666667 0.0290907
15 1 0.250903 0.75 0.0955348
18 1 0.0132954 0.833333 0.0626366
16 1 0.500946 0.833333 0.0606443
1 1 0.762804 0.916667 0.0325622
10 1 0.731308 0.666667 0.0251909
11 1 0.763764 0.75 0.0915473
72 1 0.256767 0.166667 0.220573
49 1 0.236835 0.0833333 0.154906
66 1 0.489703 0 0.189465
70 1 0.0058143 0 0.193576
53 1 0.00349304 0.25 0.190737
39 1 0.986418 0.166667 0.125665
38 1 0.507546 0.166667 0.129089
48 1 0.757729 0.0833333 0.161042
68 1 0.761973 0.166667 0.224446
50 1 0.518706 0.25 0.193332
41 1 0.267128 0.583333 0.155607
54 1 0.268581 0.333333 0.160526
55 1 0.244368 0.416667 0.223934
60 1 0.00905236 0.5 0.190243
32 1 0.0230279 0.416667 0.128099
56 1 0.499513 0.5 0.193714
29 1 0.501522 0.416667 0.125611
40 1 0.745347 0.583333 0.160419
51 1 0.753143 0.333333 0.155547
52 1 0.763857 0.416667 0.221342
17 1 0.486035 0.916667 0.127051
46 1 0.237332 0.833333 0.160666
47 1 0.25754 0.916667 0.224682
62 1 0.245581 0.666667 0.220742
19 1 0.00130274 0.916667 0.12557
42 1 0.499413 0.75 0.19111
35 1 0.999746 0.666667 0.129211
34 1 0.514546 0.666667 0.12649
45 1 0.98575 0.75 0.192894
43 1 0.751103 0.833333 0.155976
44 1 0.737971 0.916667 0.221094
58 1 0.742826 0.666667 0.224329
79 1 0.256907 0 0.28729
73 1 0.253941 0.25 0.285293
95 2 0.252818 0.133333 0.350445
71 1 0.0118618 0.0833333 0.256365
100 2 0.999687 0.216667 0.3216
96 2 0.501985 0.216667 0.32087
67 1 0.502604 0.0833333 0.255807
78 1 0.755631 0 0.28514
69 1 0.750055 0.25 0.286546
94 2 0.75059 0.133333 0.351493
77 1 0.248545 0.5 0.286596
102 2 0.24045 0.383333 0.350769
85 2 0.252832 0.633333 0.351319
57 1 0.49203 0.583333 0.256239
82 2 0.496166 0.466667 0.322288
61 1 0.998692 0.583333 0.256143
76 1 1.00055 0.333333 0.256883
74 1 0.502527 0.333333 0.256022
84 2 0.995189 0.466667 0.320206
75 1 0.743398 0.5 0.285352
98 2 0.749203 0.383333 0.351037
83 2 0.747336 0.633333 0.350502
63 1 0.2462 0.75 0.285275
92 2 0.25449 0.883333 0.351202
90 2 0.00331919 0.716667 0.322029
81 2 0.00353681 0.966667 0.320586
86 2 0.497899 0.716667 0.320334
65 1 0.99689 0.833333 0.255674
64 1 0.503027 0.833333 0.257068
80 2 0.509016 0.966667 0.321739
59 1 0.753122 0.75 0.286836
88 2 0.759155 0.883333 0.350898
117 2 0.248446 0.216667 0.415677
115 2 0.0093167 0.05 0.383027
142 2 0.230521 0.05 0.479794
125 2 0.258573 0.3 0.481851
113 2 0.491962 0.133333 0.451766
112 2 0.490417 0.05 0.385962
97 2 0.493802 0.3 0.383022
116 2 0.98861 0.133333 0.446639
101 2 0.990971 0.3 0.386346
114 2 0.732445 0.216667 0.415178
140 2 0.748936 0.05 0.480214
124 2 0.742468 0.3 0.478256
103 2 0.24498 0.466667 0.41322
130 2 0.251718 0.55 0.480325
108 2 0.0132868 0.633333 0.446631
119 2 0.0125152 0.383333 0.451439
118 2 0.490225 0.383333 0.446983
107 2 0.993707 0.55 0.383008
105 2 0.507695 0.633333 0.451807
104 2 0.509596 0.55 0.386403
99 2 0.756399 0.466667 0.416763
127 2 0.769731 0.55 0.479388
109 2 0.267324 0.716667 0.414814
93 2 0.244143 0.966667 0.417334
121 2 0.259043 0.8 0.478233
91 2 0.00952741 0.8 0.38615
111 2 0.987728 0.883333 0.451583
87 2 0.508548 0.8 0.382859
110 2 0.511212 0.883333 0.446465
106 2 0.753831 0.716667 0.415925
89 2 0.756904 0.966667 0.413143
120 2 0.740779 0.8 0.482007
159 3 0.25 0.216667 0.60706
143 2 0.244265 0.133333 0.544083
149 2 0.00416415 0.3 0.576677
158 2 0.00105588 0.05 0.579359
156 2 0.49838 0.05 0.576732
145 2 0.500108 0.3 0.579288
148 2 0.993472 0.216667 0.511878
144 2 0.506993 0.216667 0.516348
157 3 0.75 0.216667 0.60706
141 2 0.755751 0.133333 0.544955
151 3 0.25 0.466667 0.60706
150 2 0.261538 0.383333 0.544277
131 2 0.244024 0.633333 0.544951
129 2 0.00350482 0.466667 0.51659
152 2 0.501524 0.55 0.576877
154 2 0.999077 0.55 0.579405
126 2 0.511299 0.466667 0.51213
147 3 0.75 0.466667 0.60706
146 2 0.749872 0.383333 0.544792
128 2 0.756346 0.633333 0.544038
155 3 0.25 0.716667 0.60706
139 3 0.25 0.966667 0.60706
138 2 0.250319 0.883333 0.544746
122 2 0.489453 0.966667 0.511945
132 2 0.493425 0.716667 0.516553
133 2 0.499932 0.8 0.579328
136 2 0.00668863 0.716667 0.511746
137 2 0.996042 0.8 0.576677
123 2 0.99641 0.966667 0.516597
153 3 0.75 0.716667 0.60706
135 3 0.75 0.966667 0.60706
134 2 0.738884 0.883333 0.544389
