ITEM: TIMESTEP
1596
ITEM: NUMBER OF ATOMS
159
ITEM: BOX BOUNDS pp pp pp
0.0000000000000000e+00 9.1980450096746083e+00
0.0000000000000000e+00 1.1265258452427979e+01
0.0000000000000000e+00 4.1552468811769650e+01
ITEM: ATOMS id type xs ys zs
6 3 0 0.25 0
24 3 0 0 0
26 1 0.249191 0.166667 0.0294631
27 1 0.256568 0.25 0.0945487
37 1 0.244344 0 0.0916223
21 1 0.49645 0.0833333 0.0627118
25 1 0.995702 0.0833333 0.0621838
4 3 0.5 0.25 5.34372e-18
20 3 0.5 0 0
22 1 0.748062 0.166667 0.0281015
23 1 0.742118 0.25 0.090504
36 1 0.743263 0 0.0941394
7 1 0.247063 0.416667 0.0277991
12 3 0 0.5 0
33 1 0.249606 0.5 0.0898183
28 1 0.49278 0.333333 0.06109
31 1 0.00717026 0.333333 0.0630489
13 1 0.999079 0.583333 0.0602005
9 1 0.522399 0.583333 0.066123
5 1 0.753149 0.416667 0.0304919
8 3 0.5 0.5 0
30 1 0.775002 0.5 0.0955473
2 3 0 0.75 0
3 1 0.243841 0.916667 0.0296148
14 1 0.279696 0.666667 0.0290978
15 1 0.247774 0.75 0.093065
18 1 0.00192499 0.833333 0.062889
17 1 0.486622 0.916667 0.123581
16 1 0.505474 0.833333 0.0598908
1 1 0.759191 0.916667 0.0313125
10 1 0.732832 0.666667 0.0246142
11 1 0.759103 0.75 0.0928941
39 1 0.986718 0.166667 0.124638
72 1 0.255043 0.166667 0.221492
49 1 0.238697 0.0833333 0.154658
70 1 0.013837 0 0.193505
53 1 0.00634234 0.25 0.189458
66 1 0.488044 0 0.187548
38 1 0.512752 0.166667 0.129008
48 1 0.761124 0.0833333 0.160884
68 1 0.764094 0.166667 0.223254
50 1 0.514528 0.25 0.193348
41 1 0.256548 0.583333 0.158474
54 1 0.271391 0.333333 0.15982
55 1 0.242754 0.416667 0.22193
60 1 0.985368 0.5 0.191202
32 1 0.0239934 0.416667 0.128593
56 1 0.507993 0.5 0.190823
29 1 0.500941 0.416667 0.124694
40 1 0.74259 0.583333 0.157013
51 1 0.752353 0.333333 0.156509
52 1 0.748425 0.416667 0.223798
46 1 0.246606 0.833333 0.15948
47 1 0.261674 0.916667 0.225033
62 1 0.227213 0.666667 0.220258
19 1 0.994865 0.916667 0.127283
35 1 0.0102812 0.666667 0.127315
34 1 0.491667 0.666667 0.127308
44 1 0.740962 0.916667 0.220692
58 1 0.746419 0.666667 0.224298
43 1 0.731385 0.833333 0.155749
42 1 0.497262 0.75 0.193205
45 1 0.977187 0.75 0.18904
79 1 0.249821 0 0.287054
73 1 0.24422 0.25 0.28582
95 2 0.238997 0.291667 0.349813
81 2 0.990321 0.125 0.322012
80 2 0.493666 0.125 0.318794
92 2 0.245522 0.0416667 0.352408
71 1 0.00405744 0.0833333 0.25656
78 1 0.754493 0 0.286486
69 1 0.741542 0.25 0.286147
94 2 0.749602 0.291667 0.352698
67 1 0.50794 0.0833333 0.253739
88 2 0.731904 0.0416667 0.351665
100 2 0.986228 0.375 0.318863
77 1 0.243996 0.5 0.288147
102 2 0.264887 0.541667 0.352506
61 1 0.999065 0.583333 0.257134
84 2 1.00258 0.625 0.322218
57 1 0.478238 0.583333 0.253447
96 2 0.499917 0.375 0.322101
82 2 0.503785 0.625 0.31884
74 1 0.487881 0.333333 0.256507
75 1 0.741135 0.5 0.285899
98 2 0.74974 0.541667 0.351951
76 1 1.00087 0.333333 0.254284
85 2 0.249015 0.791667 0.352125
63 1 0.249445 0.75 0.285601
86 2 0.4959 0.875 0.321852
65 1 0.994495 0.833333 0.253798
90 2 0.0085594 0.875 0.319334
83 2 0.753478 0.791667 0.350922
64 1 0.508758 0.833333 0.257579
59 1 0.755273 0.75 0.286954
115 2 0.00785134 0.208333 0.386855
142 2 0.269273 0.208333 0.480219
93 2 0.254338 0.125 0.417961
111 2 0.986917 0.0416667 0.4465
113 2 0.510524 0.291667 0.446463
112 2 0.485807 0.208333 0.382366
116 2 1.00807 0.291667 0.452177
140 2 0.750323 0.208333 0.48037
89 2 0.739977 0.125 0.413871
110 2 0.510134 0.0416667 0.451694
117 2 0.251031 0.375 0.415909
125 2 0.241517 0.458333 0.481888
103 2 0.255351 0.625 0.414494
97 2 0.509672 0.458333 0.386858
101 2 0.00701517 0.458333 0.382115
118 2 0.48795 0.541667 0.45144
114 2 0.769118 0.375 0.41584
119 2 0.0099936 0.541667 0.446467
124 2 0.757372 0.458333 0.478733
99 2 0.744597 0.625 0.417448
130 2 0.248219 0.708333 0.480806
104 2 0.509019 0.708333 0.382798
108 2 -0.00956424 0.791667 0.452124
109 2 0.22751 0.875 0.415444
121 2 0.240313 0.958333 0.478579
105 2 0.486038 0.791667 0.446487
107 2 0.990296 0.708333 0.386329
127 2 0.728093 0.708333 0.47991
106 2 0.746449 0.875 0.416408
87 2 0.488067 0.958333 0.386873
91 2 0.988295 0.958333 0.382152
120 2 0.756853 0.958333 0.482201
143 2 0.256017 0.291667 0.544206
139 3 0.25 0.125 0.60706
122 2 0.503904 0.125 0.516712
123 2 0.00961117 0.125 0.511907
156 2 0.498892 0.208333 0.579463
138 2 0.248983 0.0416667 0.544781
158 2 1.00181 0.208333 0.576777
141 2 0.744044 0.291667 0.545041
135 3 0.75 0.125 0.60706
134 2 0.761469 0.0416667 0.54457
159 3 0.25 0.375 0.60706
144 2 0.50658 0.375 0.51174
149 2 -0.000359191 0.458333 0.579552
151 3 0.25 0.625 0.60706
150 2 0.237334 0.541667 0.544433
145 2 0.49587 0.458333 0.576629
148 2 0.993173 0.375 0.516635
157 3 0.75 0.375 0.60706
129 2 0.98849 0.625 0.511714
126 2 0.49529 0.625 0.516757
147 3 0.75 0.625 0.60706
146 2 0.750381 0.541667 0.544886
154 2 -0.00210955 0.708333 0.576733
131 2 0.25488 0.791667 0.545186
155 3 0.25 0.875 0.60706
136 2 0.00573296 0.875 0.516597
152 2 0.50092 0.708333 0.579441
133 2 0.503697 0.958333 0.576697
137 2 1.00021 0.958333 0.579496
128 2 0.743373 0.791667 0.544156
132 2 0.492082 0.875 0.511921
153 3 0.75 0.875 0.60706
