ITEM: TIMESTEP
1695
ITEM: NUMBER OF ATOMS
159
ITEM: BOX BOUNDS pp pp pp
0.0000000000000000e+00 9.1980450096746083e+00
0.0000000000000000e+00 1.1265258452427979e+01
0.0000000000000000e+00 4.1552468811769650e+01
ITEM: ATOMS id type xs ys zs
6 3 0 0.25 0
24 3 0 0 0
26 1 0.249599 0.166667 0.0292561
27 1 0.257292 0.25 0.0945115
37 1 0.243036 0 0.0920673
21 1 0.495376 0.0833333 0.0628001
25 1 0.996869 0.0833333 0.0619212
4 3 0.5 0.25 5.34372e-18
20 3 0.5 0 0
22 1 0.747556 0.166667 0.0282433
23 1 0.74305 0.25 0.0905309
36 1 0.7451 0 0.0935323
39 1 0.988405 0.166667 0.124359
7 1 0.247222 0.416667 0.0279603
12 3 0 0.5 0
33 1 0.249579 0.5 0.0902467
28 1 0.493041 0.333333 0.0609712
31 1 0.00801981 0.333333 0.0630932
13 1 0.999634 0.583333 0.0602243
9 1 0.518488 0.583333 0.0662008
5 1 0.753011 0.416667 0.0302957
8 3 0.5 0.5 0
30 1 0.772233 0.5 0.0945767
29 1 0.503767 0.416667 0.124505
2 3 0 0.75 0
3 1 0.242885 0.916667 0.0299719
14 1 0.277962 0.666667 0.0285873
15 1 0.250695 0.75 0.0922282
18 1 -0.000519768 0.833333 0.0631917
17 1 0.489748 0.916667 0.122628
16 1 0.505926 0.833333 0.0590601
1 1 0.759169 0.916667 0.0309448
10 1 0.732999 0.666667 0.0249652
11 1 0.754923 0.75 0.0931295
72 1 0.253663 0.166667 0.222468
49 1 0.242281 0.0833333 0.154701
70 1 0.0186202 0 0.193728
53 1 0.0131122 0.25 0.188735
66 1 0.490859 0 0.186767
38 1 0.515926 0.166667 0.129409
48 1 0.764137 0.0833333 0.16037
68 1 0.763627 0.166667 0.221484
50 1 0.505227 0.25 0.194025
41 1 0.250251 0.583333 0.158629
54 1 0.269251 0.333333 0.158702
55 1 0.249345 0.416667 0.221511
32 1 0.0180183 0.416667 0.128515
60 1 0.982707 0.5 0.19225
56 1 0.509446 0.5 0.18882
40 1 0.748394 0.583333 0.155952
51 1 0.753344 0.333333 0.157476
52 1 0.738282 0.416667 0.2243
46 1 0.248946 0.833333 0.159036
47 1 0.268643 0.916667 0.224872
62 1 0.2304 0.666667 0.219915
35 1 0.0117177 0.666667 0.1261
34 1 0.489101 0.666667 0.128098
42 1 0.501193 0.75 0.193784
19 1 0.995185 0.916667 0.12746
44 1 0.745833 0.916667 0.221131
58 1 0.750373 0.666667 0.223914
43 1 0.732133 0.833333 0.156091
45 1 0.980565 0.75 0.188212
79 1 0.247374 0 0.286395
73 1 0.236412 0.25 0.285243
95 2 0.242643 0.308333 0.34838
80 2 0.487739 0.141667 0.316908
92 2 0.24717 0.0583333 0.352784
71 1 -0.00744737 0.0833333 0.257536
81 2 0.992796 0.141667 0.322704
78 1 0.750956 0 0.288732
69 1 0.745173 0.25 0.285983
94 2 0.756888 0.308333 0.353148
67 1 0.515281 0.0833333 0.252793
88 2 0.724757 0.0583333 0.352061
77 1 0.250569 0.5 0.289446
102 2 0.272459 0.558333 0.35255
84 2 0.00532101 0.641667 0.322763
57 1 0.480576 0.583333 0.252442
74 1 0.487172 0.333333 0.258644
76 1 -0.00100056 0.333333 0.252414
61 1 0.00782749 0.583333 0.258192
96 2 0.510384 0.391667 0.322955
100 2 0.985185 0.391667 0.316982
82 2 0.510479 0.641667 0.317225
75 1 0.746218 0.5 0.285929
98 2 0.752029 0.558333 0.352577
85 2 0.243308 0.808333 0.352803
63 1 0.253044 0.75 0.285684
86 2 0.488322 0.891667 0.3225
90 2 0.012139 0.891667 0.31767
65 1 1.00037 0.833333 0.252731
83 2 0.7534 0.808333 0.349219
64 1 0.512962 0.833333 0.258847
59 1 0.763071 0.75 0.286201
115 2 0.0141947 0.225 0.387155
142 2 0.27032 0.225 0.479762
93 2 0.258156 0.141667 0.418169
112 2 0.486531 0.225 0.38205
116 2 0.00486113 0.308333 0.452218
111 2 0.989938 0.0583333 0.446009
113 2 0.51582 0.308333 0.446349
140 2 0.751066 0.225 0.481277
89 2 0.743881 0.141667 0.414349
110 2 0.51309 0.0583333 0.451738
117 2 0.252594 0.391667 0.416233
125 2 0.238055 0.475 0.481678
103 2 0.254196 0.641667 0.414639
101 2 0.0142312 0.475 0.381028
118 2 0.485664 0.558333 0.451735
119 2 0.0083272 0.558333 0.445876
97 2 0.509049 0.475 0.387584
114 2 0.77244 0.391667 0.415241
124 2 0.755647 0.475 0.478805
99 2 0.74045 0.641667 0.417986
130 2 0.248147 0.725 0.481484
109 2 0.225336 0.891667 0.415001
121 2 0.243456 0.975 0.478694
105 2 0.482616 0.808333 0.446326
87 2 0.490079 0.975 0.387685
104 2 0.510816 0.725 0.382169
108 2 0.994239 0.808333 0.452346
107 2 0.984732 0.725 0.387022
127 2 0.728429 0.725 0.479681
106 2 0.746544 0.891667 0.416601
91 2 0.983459 0.975 0.38105
120 2 0.760361 0.975 0.48186
143 2 0.2552 0.308333 0.544259
139 3 0.25 0.141667 0.60706
123 2 0.0127175 0.141667 0.511272
156 2 0.49892 0.225 0.579483
138 2 0.248981 0.0583333 0.544966
158 2 0.000778795 0.225 0.57652
122 2 0.50201 0.141667 0.51674
141 2 0.742052 0.308333 0.545071
135 3 0.75 0.141667 0.60706
134 2 0.762074 0.0583333 0.544358
159 3 0.25 0.391667 0.60706
151 3 0.25 0.641667 0.60706
150 2 0.237641 0.558333 0.544296
145 2 0.495456 0.475 0.576677
126 2 0.497536 0.641667 0.516777
144 2 0.503798 0.391667 0.511824
149 2 1.00008 0.475 0.579684
148 2 0.992493 0.391667 0.516811
157 3 0.75 0.391667 0.60706
129 2 0.986463 0.641667 0.511273
147 3 0.75 0.641667 0.60706
146 2 0.750517 0.558333 0.54503
131 2 0.257252 0.808333 0.545147
155 3 0.25 0.891667 0.60706
136 2 0.00686188 0.891667 0.516808
137 2 -0.000122593 0.975 0.579711
132 2 0.495299 0.891667 0.511874
154 2 0.999053 0.725 0.57652
152 2 0.500939 0.725 0.579482
133 2 0.504396 0.975 0.576654
128 2 0.744467 0.808333 0.544245
153 3 0.75 0.891667 0.60706
