ITEM: TIMESTEP
57
ITEM: NUMBER OF ATOMS
159
ITEM: BOX BOUNDS pp pp pp
0.0000000000000000e+00 9.1980450096746083e+00
0.0000000000000000e+00 1.1265258452427979e+01
0.0000000000000000e+00 4.1552468811769650e+01
ITEM: ATOMS id type xs ys zs
6 3 0 0.25 0
24 3 0 0 0
26 1 0.251612 0.166667 0.0291669
27 1 0.255137 0.25 0.0926806
37 1 0.248553 0 0.0938231
21 1 0.5 0.0833333 0.0627821
25 1 1 0.0833333 0.0623461
4 3 0.5 0.25 5.34372e-18
20 3 0.5 0 0
22 1 0.748388 0.166667 0.0291669
23 1 0.744863 0.25 0.0926806
36 1 0.751447 0 0.0938231
7 1 0.247474 0.416667 0.0290961
12 3 0 0.5 0
33 1 0.241142 0.5 0.0918647
9 1 0.5 0.583333 0.0668159
28 1 0.5 0.333333 0.0615641
13 1 1 0.583333 0.0605894
31 1 1 0.333333 0.0632143
5 1 0.752526 0.416667 0.0290961
8 3 0.5 0.5 0
30 1 0.758858 0.5 0.0918647
2 3 0 0.75 0
3 1 0.240357 0.916667 0.0312788
14 1 0.270785 0.666667 0.0274213
15 1 0.251295 0.75 0.0934432
16 1 0.5 0.833333 0.0590743
17 1 0.5 0.916667 0.123254
18 1 1 0.833333 0.0637497
1 1 0.759643 0.916667 0.0312788
10 1 0.729215 0.666667 0.0274213
11 1 0.748705 0.75 0.0934432
72 1 0.246466 0.166667 0.222571
70 1 2.2359e-09 0 0.192449
49 1 0.243649 0.0833333 0.158449
53 1 3.77577e-09 0.25 0.190274
39 1 1 0.166667 0.125743
38 1 0.5 0.166667 0.128193
48 1 0.756351 0.0833333 0.158449
68 1 0.753534 0.166667 0.222571
50 1 0.5 0.25 0.192415
66 1 0.5 0 0.188192
41 1 0.2474 0.583333 0.157041
54 1 0.254374 0.333333 0.157583
60 1 4.61924e-09 0.5 0.192858
55 1 0.253393 0.416667 0.222042
29 1 0.5 0.416667 0.126075
32 1 1 0.416667 0.12861
40 1 0.7526 0.583333 0.157041
51 1 0.745626 0.333333 0.157583
52 1 0.746607 0.416667 0.222042
56 1 0.5 0.5 0.19075
45 1 4.47072e-09 0.75 0.189005
46 1 0.255525 0.833333 0.158279
47 1 0.255213 0.916667 0.223094
62 1 0.243828 0.666667 0.221716
19 1 1 0.916667 0.127506
35 1 1 0.666667 0.126025
34 1 0.5 0.666667 0.129651
42 1 0.5 0.75 0.193977
43 1 0.744475 0.833333 0.158279
44 1 0.744787 0.916667 0.223094
58 1 0.756172 0.666667 0.221716
79 1 0.257375 0 0.287426
73 1 0.243083 0.25 0.286869
95 2 0.256598 0.0916667 0.351791
96 2 0.5 0.175 0.317586
71 1 1 0.0833333 0.25649
100 2 1 0.175 0.321937
78 1 0.742625 0 0.287426
69 1 0.756917 0.25 0.286869
67 1 0.5 0.0833333 0.253081
94 2 0.743402 0.0916667 0.351791
77 1 0.256756 0.5 0.286504
102 2 0.244268 0.341667 0.351216
85 2 0.255647 0.591667 0.351018
74 1 0.5 0.333333 0.256896
82 2 0.5 0.425 0.32226
76 1 1 0.333333 0.254336
61 1 1 0.583333 0.257788
84 2 1 0.425 0.318687
75 1 0.743244 0.5 0.286504
57 1 0.5 0.583333 0.254592
98 2 0.755732 0.341667 0.351216
83 2 0.744353 0.591667 0.351018
65 1 2.73468e-10 0.833333 0.253344
63 1 0.243386 0.75 0.286535
92 2 0.243132 0.841667 0.35128
64 1 0.5 0.833333 0.257879
80 2 0.5 0.925 0.32261
86 2 0.5 0.675 0.318802
90 2 1 0.675 0.322684
81 2 1 0.925 0.317291
59 1 0.756614 0.75 0.286535
88 2 0.756868 0.841667 0.35128
117 2 0.256413 0.175 0.415991
116 2 4.52762e-11 0.0916667 0.446526
115 2 1.68903e-10 0.00833333 0.381916
101 2 5.62675e-11 0.258333 0.386557
142 2 0.242939 0.00833333 0.480001
125 2 0.257229 0.258333 0.48012
113 2 0.5 0.0916667 0.451647
114 2 0.743587 0.175 0.415991
112 2 0.5 0.00833333 0.387044
97 2 0.5 0.258333 0.382453
140 2 0.757061 0.00833333 0.480001
124 2 0.742771 0.258333 0.48012
119 2 -9.20598e-12 0.341667 0.451544
108 2 3.27291e-11 0.591667 0.447462
107 2 6.89808e-12 0.508333 0.383024
103 2 0.243494 0.425 0.41551
130 2 0.243197 0.508333 0.4798
118 2 0.5 0.341667 0.447064
105 2 0.5 0.591667 0.451932
104 2 0.5 0.508333 0.386968
99 2 0.756506 0.425 0.41551
127 2 0.756803 0.508333 0.4798
109 2 0.256884 0.675 0.415436
93 2 0.243405 0.925 0.415702
91 2 1.49475e-10 0.758333 0.387431
121 2 0.25656 0.758333 0.479796
111 2 1 0.841667 0.452015
110 2 0.5 0.841667 0.447216
106 2 0.743116 0.675 0.415436
89 2 0.756595 0.925 0.415702
87 2 0.5 0.758333 0.382809
120 2 0.74344 0.758333 0.479796
159 3 0.25 0.175 0.60706
143 2 0.245269 0.0916667 0.544483
156 2 0.5 0.00833333 0.577013
145 2 0.5 0.258333 0.579108
144 2 0.5 0.175 0.516328
158 2 1 0.00833333 0.579291
149 2 1 0.258333 0.576876
148 2 1 0.175 0.512133
157 3 0.75 0.175 0.60706
141 2 0.754731 0.0916667 0.544483
152 2 0.5 0.508333 0.577243
151 3 0.25 0.425 0.60706
150 2 0.254214 0.341667 0.544484
131 2 0.245851 0.591667 0.544392
126 2 0.5 0.425 0.512801
154 2 1 0.508333 0.579191
129 2 1 0.425 0.516296
147 3 0.75 0.425 0.60706
146 2 0.745786 0.341667 0.544484
128 2 0.754149 0.591667 0.544392
155 3 0.25 0.675 0.60706
139 3 0.25 0.925 0.60706
138 2 0.254607 0.841667 0.54441
132 2 0.5 0.675 0.51649
133 2 0.5 0.758333 0.579313
122 2 0.5 0.925 0.512518
137 2 1 0.758333 0.577276
136 2 1 0.675 0.512967
123 2 1 0.925 0.51656
153 3 0.75 0.675 0.60706
135 3 0.75 0.925 0.60706
134 2 0.745393 0.841667 0.54441
