ITEM: TIMESTEP
1198
ITEM: NUMBER OF ATOMS
159
ITEM: BOX BOUNDS pp pp pp
0.0000000000000000e+00 9.1980450096746083e+00
0.0000000000000000e+00 1.1265258452427979e+01
0.0000000000000000e+00 4.1552468811769650e+01
ITEM: ATOMS id type xs ys zs
6 3 0 0.25 0
24 3 0 0 0
26 1 0.249186 0.166667 0.029461
27 1 0.257826 0.25 0.094936
37 1 0.246052 0 0.0900817
21 1 0.499965 0.0833333 0.061685
25 1 0.993961 0.0833333 0.061654
4 3 0.5 0.25 5.34372e-18
20 3 0.5 0 0
22 1 0.74878 0.166667 0.0266985
23 1 0.744155 0.25 0.0889578
36 1 0.745267 0 0.0936208
39 1 0.991236 0.166667 0.124091
7 1 0.247256 0.416667 0.0264572
12 3 0 0.5 0
33 1 0.249741 0.5 0.088505
28 1 0.492401 0.333333 0.061061
31 1 0.00850975 0.333333 0.0628772
9 1 0.516898 0.583333 0.0655367
13 1 0.998557 0.583333 0.0600644
5 1 0.753122 0.416667 0.0300225
8 3 0.5 0.5 0
30 1 0.768166 0.5 0.0944796
2 3 0 0.75 0
3 1 0.244974 0.916667 0.0284107
14 1 0.277336 0.666667 0.027976
15 1 0.244957 0.75 0.0925938
18 1 0.00194121 0.833333 0.0619363
17 1 0.486048 0.916667 0.122012
16 1 0.502695 0.833333 0.0590615
1 1 0.756975 0.916667 0.0305497
10 1 0.730702 0.666667 0.0240681
11 1 0.756997 0.75 0.0909564
72 1 0.263458 0.166667 0.216992
49 1 0.241067 0.0833333 0.153425
66 1 0.490514 0 0.184394
70 1 0.0161739 0 0.191028
67 1 0.502624 0.0833333 0.249534
38 1 0.512637 0.166667 0.126473
53 1 0.0042304 0.25 0.189215
48 1 0.763956 0.0833333 0.160152
68 1 0.761038 0.166667 0.223631
50 1 0.518906 0.25 0.189082
29 1 0.502006 0.416667 0.125472
41 1 0.253585 0.583333 0.154039
54 1 0.26062 0.333333 0.159666
55 1 0.238359 0.416667 0.226024
60 1 0.00131097 0.5 0.191094
32 1 0.0173351 0.416667 0.127599
56 1 0.484919 0.5 0.190483
40 1 0.735417 0.583333 0.159029
51 1 0.758884 0.333333 0.153731
52 1 0.749632 0.416667 0.216418
46 1 0.248831 0.833333 0.1595
47 1 0.272202 0.916667 0.226398
62 1 0.22748 0.666667 0.2163
34 1 0.495967 0.666667 0.126579
58 1 0.761254 0.666667 0.228633
65 1 0.991308 0.833333 0.249016
35 1 1.00029 0.666667 0.125954
19 1 0.999191 0.916667 0.1257
42 1 0.506477 0.75 0.193683
45 1 0.973236 0.75 0.186414
43 1 0.734076 0.833333 0.153225
44 1 0.739524 0.916667 0.216576
79 1 0.240625 0 0.290075
73 1 0.271426 0.25 0.282352
95 2 0.237744 0.233333 0.354625
71 1 0.0305187 0.0833333 0.252249
100 2 0.0228238 0.316667 0.31682
96 2 0.483324 0.316667 0.324082
81 2 1.00026 0.0666667 0.323841
78 1 0.783328 0 0.281777
69 1 0.73155 0.25 0.290084
94 2 0.775491 0.233333 0.353892
80 2 0.503772 0.0666667 0.313091
77 1 0.249949 0.5 0.292848
102 2 0.250619 0.483333 0.356291
61 1 0.0214602 0.583333 0.259438
57 1 0.473702 0.583333 0.252024
82 2 0.512615 0.566667 0.317053
74 1 0.51714 0.333333 0.252043
84 2 0.969137 0.566667 0.325127
75 1 0.751737 0.5 0.282809
98 2 0.723012 0.483333 0.354713
76 1 0.979204 0.333333 0.253124
85 2 0.222133 0.733333 0.350202
63 1 0.267472 0.75 0.282955
92 2 0.276256 0.983333 0.355144
90 2 0.00956024 0.816667 0.313114
86 2 0.482223 0.816667 0.324571
83 2 0.758852 0.733333 0.357728
64 1 0.52775 0.833333 0.257715
59 1 0.742817 0.75 0.29382
88 2 0.730237 0.983333 0.347339
117 2 0.235235 0.316667 0.417965
115 2 0.00641729 0.15 0.390362
142 2 0.252174 0.15 0.480646
93 2 0.272891 0.0666667 0.416872
113 2 0.49894 0.233333 0.446681
112 2 0.513834 0.15 0.379929
116 2 0.991302 0.233333 0.453062
114 2 0.750602 0.316667 0.417291
140 2 0.738186 0.15 0.480111
89 2 0.751019 0.0666667 0.415535
125 2 0.236719 0.4 0.48055
103 2 0.25753 0.566667 0.420828
130 2 0.268461 0.65 0.482952
107 2 0.00776257 0.65 0.390689
104 2 0.480699 0.65 0.380969
97 2 0.488276 0.4 0.389508
119 2 0.987296 0.483333 0.447293
101 2 0.995542 0.4 0.383414
124 2 0.756454 0.4 0.482704
118 2 0.506712 0.483333 0.453226
99 2 0.734286 0.566667 0.416048
127 2 0.748809 0.65 0.480572
108 2 0.0170348 0.733333 0.453985
109 2 0.24526 0.816667 0.413675
121 2 0.25457 0.9 0.481137
111 2 0.0176808 0.983333 0.446831
105 2 0.500744 0.733333 0.446843
106 2 0.77583 0.816667 0.420495
87 2 0.52396 0.9 0.390535
110 2 0.503257 0.983333 0.453416
91 2 0.988483 0.9 0.378131
120 2 0.762978 0.9 0.481252
159 3 0.25 0.316667 0.60706
143 2 0.255623 0.233333 0.545398
148 2 0.00326885 0.316667 0.517881
139 3 0.25 0.0666667 0.60706
144 2 0.49259 0.316667 0.511653
122 2 0.496489 0.0666667 0.517485
123 2 0.997506 0.0666667 0.512713
158 2 0.998109 0.15 0.577393
156 2 0.500655 0.15 0.580342
157 3 0.75 0.316667 0.60706
141 2 0.741203 0.233333 0.544256
135 3 0.75 0.0666667 0.60706
149 2 0.000628218 0.4 0.580219
151 3 0.25 0.566667 0.60706
150 2 0.248608 0.483333 0.545141
129 2 0.00366453 0.566667 0.513239
154 2 0.00306525 0.65 0.577602
152 2 0.499708 0.65 0.579929
145 2 0.501936 0.4 0.577042
126 2 0.507248 0.566667 0.517472
147 3 0.75 0.566667 0.60706
146 2 0.75973 0.483333 0.545432
131 2 0.257143 0.733333 0.545097
155 3 0.25 0.816667 0.60706
138 2 0.241437 0.983333 0.544625
136 2 0.000476899 0.816667 0.51711
133 2 0.498553 0.9 0.577393
137 2 -0.000257281 0.9 0.579957
128 2 0.751038 0.733333 0.545394
132 2 0.510693 0.816667 0.513403
153 3 0.75 0.816667 0.60706
134 2 0.753824 0.983333 0.545192
