ITEM: TIMESTEP
364
ITEM: NUMBER OF ATOMS
159
ITEM: BOX BOUNDS pp pp pp
0.0000000000000000e+00 9.1980450096746083e+00
0.0000000000000000e+00 1.1265258452427979e+01
0.0000000000000000e+00 4.1552468811769650e+01
ITEM: ATOMS id type xs ys zs
6 3 0 0.25 0
24 3 0 0 0
26 1 0.249984 0.166667 0.0298645
27 1 0.245019 0.25 0.0946973
37 1 0.261863 0 0.0905299
21 1 0.507295 0.0833333 0.0623773
25 1 0.997792 0.0833333 0.0634825
4 3 0.5 0.25 5.34372e-18
20 3 0.5 0 0
22 1 0.750573 0.166667 0.0272392
23 1 0.744752 0.25 0.0902599
36 1 0.739472 0 0.096918
7 1 0.247538 0.416667 0.0276374
12 3 0 0.5 0
33 1 0.241397 0.5 0.0896466
28 1 0.488576 0.333333 0.0621267
31 1 0.00195331 0.333333 0.0626236
9 1 0.513675 0.583333 0.066071
13 1 0.993227 0.583333 0.0606556
5 1 0.748196 0.416667 0.0309488
8 3 0.5 0.5 0
30 1 0.767094 0.5 0.0962217
2 3 0 0.75 0
3 1 0.245385 0.916667 0.0277485
14 1 0.271701 0.666667 0.029406
15 1 0.263136 0.75 0.0964553
18 1 0.0206628 0.833333 0.063208
16 1 0.500811 0.833333 0.0597519
1 1 0.767911 0.916667 0.0336977
10 1 0.729815 0.666667 0.0253983
11 1 0.761149 0.75 0.091626
72 1 0.245144 0.166667 0.220395
49 1 0.237978 0.0833333 0.15463
66 1 0.48285 0 0.190482
70 1 -4.08006e-05 0 0.192744
53 1 -0.00261181 0.25 0.190186
39 1 0.980736 0.166667 0.127158
38 1 0.501075 0.166667 0.128343
48 1 0.744864 0.0833333 0.161329
68 1 0.761781 0.166667 0.224656
50 1 0.511763 0.25 0.194891
41 1 0.265462 0.583333 0.155683
54 1 0.266395 0.333333 0.160604
55 1 0.253863 0.416667 0.224097
60 1 0.0171306 0.5 0.191578
32 1 0.0162114 0.416667 0.129027
56 1 0.504265 0.5 0.192537
29 1 0.494068 0.416667 0.124882
40 1 0.759623 0.583333 0.160603
51 1 0.740661 0.333333 0.155582
52 1 0.764003 0.416667 0.22126
17 1 0.493017 0.916667 0.128019
46 1 0.23579 0.833333 0.160992
47 1 0.250177 0.916667 0.225069
62 1 0.256866 0.666667 0.221346
19 1 0.00534579 0.916667 0.124846
42 1 0.502241 0.75 0.190226
35 1 1.00402 0.666667 0.128192
34 1 0.523324 0.666667 0.127837
45 1 0.99325 0.75 0.194577
43 1 0.763396 0.833333 0.156959
44 1 0.736112 0.916667 0.221355
58 1 0.741096 0.666667 0.224198
79 1 0.255703 0 0.287435
73 1 0.254974 0.25 0.285051
95 2 0.253385 0.141667 0.350275
71 1 0.00793999 0.0833333 0.257198
100 2 1.0021 0.225 0.321679
96 2 0.5027 0.225 0.321045
67 1 0.499631 0.0833333 0.256022
78 1 0.751298 0 0.285262
69 1 0.75294 0.25 0.286711
94 2 0.751762 0.141667 0.3512
77 1 0.248919 0.5 0.286443
102 2 0.243439 0.391667 0.350398
85 2 0.252102 0.641667 0.351094
57 1 0.496374 0.583333 0.256944
82 2 0.496981 0.475 0.322321
76 1 0.00315085 0.333333 0.25668
61 1 0.999357 0.583333 0.25642
74 1 0.506682 0.333333 0.256966
84 2 0.997328 0.475 0.320606
75 1 0.747752 0.5 0.285467
98 2 0.749035 0.391667 0.350755
83 2 0.74562 0.641667 0.350066
63 1 0.243846 0.75 0.285299
92 2 0.252718 0.891667 0.350935
90 2 0.00170992 0.725 0.322408
81 2 0.00154719 0.975 0.320605
86 2 0.495781 0.725 0.320224
65 1 0.992955 0.833333 0.256336
64 1 0.499881 0.833333 0.257033
80 2 0.50733 0.975 0.32196
59 1 0.750964 0.75 0.28693
88 2 0.758041 0.891667 0.350814
117 2 0.248296 0.225 0.415286
115 2 0.00979655 0.0583333 0.38307
142 2 0.230435 0.0583333 0.479829
125 2 0.257491 0.308333 0.481856
113 2 0.490895 0.141667 0.451684
112 2 0.491704 0.0583333 0.385848
97 2 0.495184 0.308333 0.383199
116 2 0.989748 0.141667 0.446578
101 2 0.990246 0.308333 0.386105
114 2 0.733466 0.225 0.415206
140 2 0.749118 0.0583333 0.479962
124 2 0.741215 0.308333 0.478148
103 2 0.243253 0.475 0.412806
130 2 0.251558 0.558333 0.479995
108 2 0.0118946 0.641667 0.44681
119 2 0.0117636 0.391667 0.451371
118 2 0.48869 0.391667 0.446996
107 2 0.991945 0.558333 0.383088
105 2 0.508644 0.641667 0.451908
104 2 0.508679 0.558333 0.386513
99 2 0.755358 0.475 0.416759
127 2 0.769326 0.558333 0.479463
109 2 0.266947 0.725 0.414884
93 2 0.245913 0.975 0.417236
121 2 0.259294 0.808333 0.478149
91 2 0.0103589 0.808333 0.38641
111 2 0.98831 0.891667 0.451522
87 2 0.506769 0.808333 0.38274
110 2 0.512211 0.891667 0.446439
106 2 0.753275 0.725 0.415502
89 2 0.757217 0.975 0.412957
120 2 0.742076 0.808333 0.481932
159 3 0.25 0.225 0.60706
143 2 0.243845 0.141667 0.544004
149 2 0.0040577 0.308333 0.576631
158 2 0.00106534 0.0583333 0.579347
156 2 0.497982 0.0583333 0.576692
145 2 0.500143 0.308333 0.579231
148 2 0.992262 0.225 0.511777
144 2 0.506702 0.225 0.5163
157 3 0.75 0.225 0.60706
141 2 0.755172 0.141667 0.544965
151 3 0.25 0.475 0.60706
150 2 0.261328 0.391667 0.544277
131 2 0.244655 0.641667 0.544907
129 2 0.00395211 0.475 0.51652
152 2 0.501761 0.558333 0.576938
154 2 0.99906 0.558333 0.579364
126 2 0.510464 0.475 0.512286
147 3 0.75 0.475 0.60706
146 2 0.749873 0.391667 0.544732
128 2 0.756454 0.641667 0.543974
155 3 0.25 0.725 0.60706
139 3 0.25 0.975 0.60706
138 2 0.250567 0.891667 0.544703
122 2 0.489892 0.975 0.51184
132 2 0.493643 0.725 0.516516
133 2 0.499887 0.808333 0.579331
136 2 0.00740925 0.725 0.511828
137 2 0.996106 0.808333 0.576681
123 2 0.995961 0.975 0.516612
153 3 0.75 0.725 0.60706
135 3 0.75 0.975 0.60706
134 2 0.738633 0.891667 0.544353
