ITEM: TIMESTEP
102
ITEM: NUMBER OF ATOMS
159
ITEM: BOX BOUNDS pp pp pp
0.0000000000000000e+00 9.1980450096746083e+00
0.0000000000000000e+00 1.1265258452427979e+01
0.0000000000000000e+00 4.1552468811769650e+01
ITEM: ATOMS id type xs ys zs
6 3 0 0.25 0
24 3 0 0 0
26 1 0.251461 0.166667 0.0288921
27 1 0.255364 0.25 0.0923697
37 1 0.24919 0 0.0933619
25 1 2.18647e-08 0.0833333 0.0625156
21 1 0.5 0.0833333 0.0628609
4 3 0.5 0.25 5.34372e-18
20 3 0.5 0 0
22 1 0.748539 0.166667 0.028892
23 1 0.744636 0.25 0.0923694
36 1 0.75081 0 0.0933622
7 1 0.24738 0.416667 0.0290425
12 3 0 0.5 0
33 1 0.241039 0.5 0.0918313
9 1 0.500001 0.583333 0.0668391
28 1 0.5 0.333333 0.0616385
13 1 1 0.583333 0.0606671
31 1 1 0.333333 0.0632521
5 1 0.75262 0.416667 0.0290427
8 3 0.5 0.5 0
30 1 0.758961 0.5 0.0918316
2 3 0 0.75 0
3 1 0.240286 0.916667 0.0309707
14 1 0.271334 0.666667 0.0273023
15 1 0.250638 0.75 0.0931856
18 1 5.50184e-07 0.833333 0.0638713
16 1 0.5 0.833333 0.0593773
17 1 0.5 0.916667 0.123766
1 1 0.759714 0.916667 0.0309709
10 1 0.728666 0.666667 0.0273021
11 1 0.749363 0.75 0.0931856
72 1 0.249294 0.166667 0.222016
49 1 0.243372 0.0833333 0.157898
39 1 -7.63512e-07 0.166667 0.126043
66 1 0.499999 0 0.189171
70 1 1 0 0.192896
53 1 1 0.25 0.191172
38 1 0.500001 0.166667 0.128606
48 1 0.756628 0.0833333 0.157898
68 1 0.750707 0.166667 0.222016
50 1 0.500001 0.25 0.192662
41 1 0.248527 0.583333 0.156951
54 1 0.253621 0.333333 0.157197
55 1 0.25063 0.416667 0.221716
29 1 0.5 0.416667 0.126425
60 1 1 0.5 0.192391
32 1 1 0.416667 0.128511
40 1 0.751474 0.583333 0.156951
51 1 0.74638 0.333333 0.157196
52 1 0.74937 0.416667 0.221716
56 1 0.5 0.5 0.191636
46 1 0.25523 0.833333 0.15779
47 1 0.253712 0.916667 0.222489
62 1 0.245585 0.666667 0.221553
19 1 -7.68124e-08 0.916667 0.127749
34 1 0.5 0.666667 0.129469
42 1 0.5 0.75 0.193639
45 1 0.999999 0.75 0.190154
35 1 1 0.666667 0.126774
43 1 0.74477 0.833333 0.15779
44 1 0.746288 0.916667 0.222489
58 1 0.754414 0.666667 0.221553
79 1 0.25064 0 0.286272
73 1 0.248573 0.25 0.285916
95 2 0.252744 0.108333 0.351257
67 1 0.5 0.0833333 0.255043
71 1 3.46521e-07 0.0833333 0.256155
100 2 7.44962e-08 0.191667 0.321613
96 2 0.5 0.191667 0.320051
78 1 0.74936 0 0.286272
69 1 0.751427 0.25 0.285916
94 2 0.747256 0.108333 0.351257
77 1 0.252077 0.5 0.285759
102 2 0.247499 0.358333 0.35097
85 2 0.251542 0.608333 0.350977
82 2 0.5 0.441667 0.321767
76 1 -7.075e-08 0.333333 0.255672
61 1 2.13024e-07 0.583333 0.256556
57 1 0.5 0.583333 0.255721
74 1 0.5 0.333333 0.256377
84 2 1 0.441667 0.320264
75 1 0.747923 0.5 0.285759
98 2 0.7525 0.358333 0.35097
83 2 0.748458 0.608333 0.350977
63 1 0.248619 0.75 0.285871
92 2 0.248199 0.858333 0.351173
90 2 1.65542e-07 0.691667 0.32149
65 1 1 0.833333 0.255244
64 1 0.5 0.833333 0.256835
80 2 0.5 0.941667 0.321334
86 2 0.5 0.691667 0.320616
81 2 1 0.941667 0.320192
59 1 0.751381 0.75 0.285871
88 2 0.751801 0.858333 0.351173
117 2 0.255234 0.191667 0.415441
115 2 7.73003e-08 0.025 0.383356
142 2 0.243914 0.025 0.479853
125 2 0.25611 0.275 0.4798
113 2 0.5 0.108333 0.451368
97 2 0.5 0.275 0.383491
116 2 1 0.108333 0.447518
101 2 1 0.275 0.386334
114 2 0.744766 0.191667 0.415441
112 2 0.5 0.025 0.38619
140 2 0.756085 0.025 0.479853
124 2 0.74389 0.275 0.4798
107 2 1.39247e-07 0.525 0.383605
103 2 0.245239 0.441667 0.415233
130 2 0.24362 0.525 0.479696
119 2 -6.3379e-09 0.358333 0.451466
105 2 0.5 0.608333 0.451581
104 2 0.5 0.525 0.386316
108 2 1 0.608333 0.447502
118 2 0.5 0.358333 0.447625
99 2 0.754762 0.441667 0.415233
127 2 0.75638 0.525 0.479696
109 2 0.255058 0.691667 0.415285
93 2 0.244387 0.941667 0.415447
121 2 0.256369 0.775 0.479765
111 2 -6.38605e-08 0.858333 0.451519
87 2 0.5 0.775 0.38364
91 2 1 0.775 0.386189
110 2 0.5 0.858333 0.447493
106 2 0.744942 0.691667 0.415285
89 2 0.755613 0.941667 0.415447
120 2 0.743631 0.775 0.479765
159 3 0.25 0.191667 0.60706
143 2 0.246134 0.108333 0.544398
145 2 0.5 0.275 0.578998
158 2 2.93281e-09 0.025 0.579026
148 2 2.84277e-08 0.191667 0.51288
156 2 0.5 0.025 0.577159
144 2 0.5 0.191667 0.516104
149 2 1 0.275 0.577223
157 3 0.75 0.191667 0.60706
141 2 0.753866 0.108333 0.544398
151 3 0.25 0.441667 0.60706
150 2 0.253891 0.358333 0.544374
131 2 0.246118 0.608333 0.544357
126 2 0.5 0.441667 0.512982
154 2 9.48349e-10 0.525 0.579077
129 2 -1.60904e-08 0.441667 0.516233
152 2 0.5 0.525 0.5773
147 3 0.75 0.441667 0.60706
146 2 0.746109 0.358333 0.544374
128 2 0.753882 0.608333 0.544357
155 3 0.25 0.691667 0.60706
139 3 0.25 0.941667 0.60706
138 2 0.25383 0.858333 0.544378
133 2 0.5 0.775 0.579087
122 2 0.5 0.941667 0.512852
136 2 -7.89041e-09 0.691667 0.512895
132 2 0.5 0.691667 0.516276
137 2 1 0.775 0.577211
123 2 1 0.941667 0.516165
153 3 0.75 0.691667 0.60706
135 3 0.75 0.941667 0.60706
134 2 0.74617 0.858333 0.544378
