ITEM: TIMESTEP
1725
ITEM: NUMBER OF ATOMS
159
ITEM: BOX BOUNDS pp pp pp
0.0000000000000000e+00 9.1980450096746083e+00
0.0000000000000000e+00 1.1265258452427979e+01
0.0000000000000000e+00 4.1552468811769650e+01
ITEM: ATOMS id type xs ys zs
6 3 0 0.25 0
24 3 0 0 0
26 1 0.249667 0.166667 0.0292953
27 1 0.257577 0.25 0.0946024
37 1 0.243044 0 0.0920591
21 1 0.495561 0.0833333 0.0628125
25 1 0.996808 0.0833333 0.0618856
4 3 0.5 0.25 5.34372e-18
20 3 0.5 0 0
22 1 0.747524 0.166667 0.0282216
23 1 0.743332 0.25 0.0905033
36 1 0.745307 0 0.0935087
39 1 0.988757 0.166667 0.124298
7 1 0.247288 0.416667 0.0279277
12 3 0 0.5 0
33 1 0.249729 0.5 0.0902133
28 1 0.493093 0.333333 0.0609665
31 1 0.00830641 0.333333 0.0630779
13 1 0.999632 0.583333 0.0602095
9 1 0.518681 0.583333 0.0661706
5 1 0.753092 0.416667 0.0303199
8 3 0.5 0.5 0
30 1 0.772331 0.5 0.0946352
29 1 0.503857 0.416667 0.124498
2 3 0 0.75 0
3 1 0.242892 0.916667 0.0299737
14 1 0.278061 0.666667 0.0285867
15 1 0.250513 0.75 0.0922062
17 1 0.489678 0.916667 0.122642
18 1 0.9993 0.833333 0.0631733
16 1 0.506019 0.833333 0.0590729
1 1 0.759049 0.916667 0.0308993
10 1 0.733059 0.666667 0.0249521
11 1 0.754978 0.75 0.0931454
72 1 0.252926 0.166667 0.22273
49 1 0.243141 0.0833333 0.15476
70 1 0.0194719 0 0.193765
53 1 0.0135496 0.25 0.188534
66 1 0.491769 0 0.186766
38 1 0.516424 0.166667 0.129388
48 1 0.764612 0.0833333 0.160307
68 1 0.763813 0.166667 0.221311
50 1 0.504343 0.25 0.194016
41 1 0.25026 0.583333 0.158593
54 1 0.269155 0.333333 0.15874
55 1 0.248435 0.416667 0.221561
32 1 0.018057 0.416667 0.128453
60 1 0.982375 0.5 0.192167
56 1 0.508923 0.5 0.188806
40 1 0.747764 0.583333 0.156033
51 1 0.753364 0.333333 0.157495
52 1 0.737485 0.416667 0.224171
46 1 0.249316 0.833333 0.159058
47 1 0.270259 0.916667 0.224754
62 1 0.230435 0.666667 0.219814
35 1 0.011706 0.666667 0.126057
34 1 0.488967 0.666667 0.128029
42 1 0.502442 0.75 0.193735
19 1 0.995908 0.916667 0.127463
44 1 0.746845 0.916667 0.221186
58 1 0.751381 0.666667 0.224061
43 1 0.732578 0.833333 0.156028
45 1 0.980563 0.75 0.188073
79 1 0.250323 0 0.286073
73 1 0.232803 0.25 0.285647
95 2 0.241898 0.316667 0.348433
80 2 0.487137 0.15 0.316688
92 2 0.246196 0.0666667 0.35271
71 1 0.991001 0.0833333 0.25785
81 2 0.991268 0.15 0.322779
78 1 0.749205 0 0.289188
69 1 0.745021 0.25 0.286126
94 2 0.757795 0.316667 0.353494
67 1 0.516428 0.0833333 0.252636
88 2 0.723956 0.0666667 0.351956
77 1 0.252675 0.5 0.289727
102 2 0.272583 0.566667 0.352428
84 2 0.00783659 0.65 0.322869
57 1 0.480012 0.583333 0.252197
74 1 0.485199 0.333333 0.258648
61 1 0.00894562 0.583333 0.258417
76 1 0.998096 0.333333 0.252101
96 2 0.512574 0.4 0.323034
100 2 0.983507 0.4 0.316532
82 2 0.510081 0.65 0.317096
75 1 0.741833 0.5 0.285608
98 2 0.752949 0.566667 0.352354
85 2 0.242364 0.816667 0.353182
63 1 0.252906 0.75 0.28578
86 2 0.485525 0.9 0.322509
90 2 0.0133706 0.9 0.317285
65 1 0.00160376 0.833333 0.252434
83 2 0.753432 0.816667 0.349071
64 1 0.514836 0.833333 0.258998
59 1 0.766946 0.75 0.286522
115 2 0.0146537 0.233333 0.387279
142 2 0.270134 0.233333 0.479745
93 2 0.258565 0.15 0.418213
112 2 0.485823 0.233333 0.381859
116 2 0.00446626 0.316667 0.452142
111 2 0.989822 0.0666667 0.445964
113 2 0.516036 0.316667 0.446239
140 2 0.751028 0.233333 0.481307
89 2 0.743611 0.15 0.414359
110 2 0.513104 0.0666667 0.451781
117 2 0.252936 0.4 0.416376
125 2 0.237287 0.483333 0.481732
103 2 0.254108 0.65 0.414573
101 2 0.0146014 0.483333 0.38105
118 2 0.485108 0.566667 0.451792
119 2 0.00815797 0.566667 0.445805
97 2 0.508954 0.483333 0.387496
114 2 0.772141 0.4 0.415336
124 2 0.755586 0.483333 0.478857
99 2 0.739526 0.65 0.418035
130 2 0.247864 0.733333 0.481526
109 2 0.224802 0.9 0.415091
121 2 0.243411 0.983333 0.478771
105 2 0.481842 0.816667 0.446206
87 2 0.490023 0.983333 0.387655
104 2 0.511336 0.733333 0.381978
108 2 0.994307 0.816667 0.452335
107 2 0.983459 0.733333 0.387113
127 2 0.72819 0.733333 0.479643
106 2 0.746013 0.9 0.416748
91 2 0.982319 0.983333 0.380979
120 2 0.760559 0.983333 0.481889
143 2 0.255229 0.316667 0.544272
139 3 0.25 0.15 0.60706
123 2 0.0127948 0.15 0.511216
156 2 0.4989 0.233333 0.579522
138 2 0.248857 0.0666667 0.544989
158 2 0.000676562 0.233333 0.576489
122 2 0.501751 0.15 0.51675
141 2 0.7416 0.316667 0.545071
135 3 0.75 0.15 0.60706
134 2 0.762079 0.0666667 0.544359
159 3 0.25 0.4 0.60706
151 3 0.25 0.65 0.60706
150 2 0.237588 0.566667 0.544301
145 2 0.495334 0.483333 0.576633
126 2 0.497611 0.65 0.516792
149 2 0.00010241 0.483333 0.579673
144 2 0.50356 0.4 0.511692
148 2 0.992237 0.4 0.516829
157 3 0.75 0.4 0.60706
129 2 0.986081 0.65 0.511266
147 3 0.75 0.65 0.60706
146 2 0.750367 0.566667 0.545063
131 2 0.257449 0.816667 0.545144
155 3 0.25 0.9 0.60706
136 2 0.00685785 0.9 0.516813
132 2 0.495345 0.9 0.511771
137 2 0.999833 0.983333 0.579711
154 2 0.999111 0.733333 0.576502
152 2 0.500919 0.733333 0.579515
133 2 0.504444 0.983333 0.576598
128 2 0.744384 0.816667 0.544256
153 3 0.75 0.9 0.60706
