ITEM: TIMESTEP
603
ITEM: NUMBER OF ATOMS
159
ITEM: BOX BOUNDS pp pp pp
0.0000000000000000e+00 9.1980450096746083e+00
0.0000000000000000e+00 1.1265258452427979e+01
0.0000000000000000e+00 4.1552468811769650e+01
ITEM: ATOMS id type xs ys zs
6 3 0 0.25 0
24 3 0 0 0
26 1 0.249895 0.166667 0.029558
27 1 0.255275 0.25 0.0942671
37 1 0.250132 0 0.0914387
21 1 0.500178 0.0833333 0.0625237
25 1 0.997675 0.0833333 0.0625299
4 3 0.5 0.25 5.34372e-18
20 3 0.5 0 0
22 1 0.749218 0.166667 0.0274091
23 1 0.743677 0.25 0.0897326
36 1 0.745627 0 0.0947496
7 1 0.24749 0.416667 0.0272973
12 3 0 0.5 0
33 1 0.245273 0.5 0.0894574
28 1 0.493259 0.333333 0.0615996
31 1 0.0055866 0.333333 0.0632426
29 1 0.501117 0.416667 0.126108
9 1 0.510848 0.583333 0.0673191
13 1 -0.000503139 0.583333 0.0603272
5 1 0.751807 0.416667 0.0294313
8 3 0.5 0.5 0
30 1 0.767482 0.5 0.0930605
2 3 0 0.75 0
3 1 0.242547 0.916667 0.0294045
14 1 0.275069 0.666667 0.0277366
15 1 0.253118 0.75 0.0930275
18 1 0.00500258 0.833333 0.0637037
19 1 0.997616 0.916667 0.127435
16 1 0.501562 0.833333 0.059423
1 1 0.761393 0.916667 0.0319741
10 1 0.729799 0.666667 0.0257555
11 1 0.754791 0.75 0.0924356
72 1 0.256571 0.166667 0.219258
49 1 0.238085 0.0833333 0.154756
66 1 0.49187 0 0.18716
70 1 0.0105732 0 0.194443
53 1 0.00363748 0.25 0.191051
39 1 0.990112 0.166667 0.125246
38 1 0.508783 0.166667 0.128726
48 1 0.761873 0.0833333 0.160864
68 1 0.761641 0.166667 0.22419
50 1 0.513958 0.25 0.193609
41 1 0.253019 0.583333 0.15499
54 1 0.265385 0.333333 0.159102
55 1 0.251624 0.416667 0.223371
60 1 0.00585162 0.5 0.193083
32 1 0.0132094 0.416667 0.129497
56 1 0.497763 0.5 0.192494
40 1 0.752703 0.583333 0.157035
51 1 0.75093 0.333333 0.154152
52 1 0.754104 0.416667 0.217937
17 1 0.49305 0.916667 0.123735
46 1 0.249726 0.833333 0.15822
47 1 0.263505 0.916667 0.224134
62 1 0.23981 0.666667 0.218214
35 1 0.00232592 0.666667 0.126826
42 1 0.502861 0.75 0.194822
34 1 0.50266 0.666667 0.129959
45 1 0.987574 0.75 0.189555
43 1 0.741154 0.833333 0.156114
44 1 0.739654 0.916667 0.220544
58 1 0.754356 0.666667 0.222952
79 1 0.254728 0 0.286846
73 1 0.254848 0.25 0.282975
95 2 0.254739 0.158333 0.347575
71 1 0.0116162 0.0833333 0.257216
100 2 0.00454464 0.241667 0.320613
67 1 0.502455 0.0833333 0.255314
96 2 0.501845 0.241667 0.321288
78 1 0.758228 0 0.28424
69 1 0.752185 0.25 0.286875
94 2 0.751442 0.158333 0.352166
77 1 0.251768 0.5 0.28705
102 2 0.245929 0.408333 0.35167
85 2 0.249433 0.658333 0.347102
57 1 0.490674 0.583333 0.256099
82 2 0.503279 0.491667 0.320603
76 1 0.997322 0.333333 0.256778
61 1 0.00763014 0.583333 0.258092
74 1 0.508246 0.333333 0.256959
84 2 0.997393 0.491667 0.321294
75 1 0.748551 0.5 0.281897
98 2 0.750656 0.408333 0.347308
83 2 0.755966 0.658333 0.352339
63 1 0.250208 0.75 0.283376
92 2 0.263529 0.908333 0.35268
90 2 0.00235118 0.741667 0.320884
81 2 0.0058933 0.991667 0.321447
86 2 0.503174 0.741667 0.321687
64 1 0.508192 0.833333 0.258959
65 1 0.997015 0.833333 0.254714
80 2 0.506417 0.991667 0.320511
59 1 0.754668 0.75 0.286324
88 2 0.75296 0.908333 0.347638
117 2 0.24826 0.241667 0.411242
115 2 0.014882 0.075 0.38325
142 2 0.240747 0.075 0.482441
125 2 0.237009 0.325 0.477589
113 2 0.480775 0.158333 0.449641
112 2 0.493549 0.075 0.385442
97 2 0.504828 0.325 0.383998
116 2 1.00053 0.158333 0.448247
101 2 0.982519 0.325 0.384505
114 2 0.737776 0.241667 0.418566
140 2 0.744031 0.075 0.477727
124 2 0.76136 0.325 0.482376
103 2 0.261026 0.491667 0.418991
130 2 0.264896 0.575 0.482259
108 2 0.0228624 0.658333 0.45035
119 2 0.988869 0.408333 0.446749
118 2 0.511054 0.408333 0.451503
107 2 0.0153177 0.575 0.385881
105 2 0.504026 0.658333 0.447896
104 2 0.487446 0.575 0.382865
99 2 0.740294 0.491667 0.411366
127 2 0.757699 0.575 0.478044
109 2 0.255827 0.741667 0.411683
93 2 0.243529 0.991667 0.418832
121 2 0.265409 0.825 0.47804
91 2 1.00037 0.825 0.383629
111 2 0.995258 0.908333 0.451345
87 2 0.524409 0.825 0.385477
110 2 0.511684 0.908333 0.447266
106 2 0.769181 0.741667 0.418798
89 2 0.764575 0.991667 0.411999
120 2 0.742143 0.825 0.482123
159 3 0.25 0.241667 0.60706
143 2 0.255228 0.158333 0.545275
149 2 0.00190018 0.325 0.577976
158 2 1.00007 0.075 0.577615
156 2 0.500105 0.075 0.577882
145 2 0.501967 0.325 0.577649
148 2 0.00409981 0.241667 0.515695
144 2 0.496891 0.241667 0.512968
157 3 0.75 0.241667 0.60706
141 2 0.744141 0.158333 0.543842
151 3 0.25 0.491667 0.60706
150 2 0.255784 0.408333 0.54383
131 2 0.246922 0.658333 0.545119
129 2 0.0048232 0.491667 0.513516
152 2 0.499926 0.575 0.577869
154 2 0.000658455 0.575 0.577555
126 2 0.511081 0.491667 0.514804
147 3 0.75 0.491667 0.60706
146 2 0.754893 0.408333 0.545201
128 2 0.756251 0.658333 0.543953
155 3 0.25 0.741667 0.60706
139 3 0.25 0.991667 0.60706
138 2 0.244121 0.908333 0.543739
122 2 0.498403 0.991667 0.514029
132 2 0.499375 0.741667 0.515417
133 2 0.497897 0.825 0.577687
136 2 0.00321232 0.741667 0.513427
137 2 0.999102 0.825 0.577956
123 2 0.9899 0.991667 0.514243
153 3 0.75 0.741667 0.60706
135 3 0.75 0.991667 0.60706
134 2 0.748157 0.908333 0.545302
