ITEM: TIMESTEP
1417
ITEM: NUMBER OF ATOMS
159
ITEM: BOX BOUNDS pp pp pp
0.0000000000000000e+00 9.1980450096746083e+00
0.0000000000000000e+00 1.1265258452427979e+01
0.0000000000000000e+00 4.1552468811769650e+01
ITEM: ATOMS id type xs ys zs
6 3 0 0.25 0
24 3 0 0 0
26 1 0.253451 0.166667 0.0302242
27 1 0.266984 0.25 0.0955706
37 1 0.250701 0 0.0908224
21 1 0.50861 0.0833333 0.0625244
25 1 0.99853 0.0833333 0.0619275
4 3 0.5 0.25 5.34372e-18
20 3 0.5 0 0
22 1 0.748989 0.166667 0.027095
23 1 0.7527 0.25 0.089715
36 1 0.759475 0 0.095466
7 1 0.248121 0.416667 0.0268406
12 3 0 0.5 0
33 1 0.252242 0.5 0.0888092
28 1 0.499492 0.333333 0.0612486
31 1 0.0122251 0.333333 0.0628422
13 1 0.998394 0.583333 0.0608314
9 1 0.511269 0.583333 0.0657258
5 1 0.755434 0.416667 0.0301512
8 3 0.5 0.5 0
30 1 0.760901 0.5 0.0941136
2 3 0 0.75 0
3 1 0.243474 0.916667 0.0290785
14 1 0.273083 0.666667 0.0276222
15 1 0.248128 0.75 0.0935871
18 1 0.00412712 0.833333 0.0627254
17 1 0.496917 0.916667 0.122404
16 1 0.498677 0.833333 0.0592432
1 1 0.758316 0.916667 0.0318449
10 1 0.730402 0.666667 0.0254468
11 1 0.753936 0.75 0.0916725
39 1 0.00461928 0.166667 0.125486
72 1 0.266791 0.166667 0.220953
49 1 0.261696 0.0833333 0.154941
70 1 0.030126 0 0.190833
53 1 0.00411037 0.25 0.191424
66 1 0.507408 0 0.188561
38 1 0.525635 0.166667 0.127413
48 1 0.77176 0.0833333 0.161006
68 1 0.747111 0.166667 0.223845
50 1 0.510374 0.25 0.189442
41 1 0.250498 0.583333 0.153942
54 1 0.249834 0.333333 0.160233
55 1 0.245992 0.416667 0.224706
60 1 0.00325786 0.5 0.190763
32 1 0.0146736 0.416667 0.125829
56 1 0.486323 0.5 0.190743
29 1 0.501419 0.416667 0.126997
40 1 0.744573 0.583333 0.159248
51 1 0.766266 0.333333 0.155192
52 1 0.744546 0.416667 0.219219
46 1 0.26731 0.833333 0.160064
47 1 0.271474 0.916667 0.225457
62 1 0.244358 0.666667 0.218453
19 1 0.0137225 0.916667 0.127043
35 1 0.993045 0.666667 0.126691
34 1 0.50355 0.666667 0.127518
44 1 0.765103 0.916667 0.220689
58 1 0.769941 0.666667 0.22531
43 1 0.744897 0.833333 0.155313
42 1 0.518245 0.75 0.193255
45 1 0.994302 0.75 0.188133
79 1 0.241069 0 0.287768
73 1 0.250773 0.25 0.284835
95 2 0.251331 0.266667 0.351293
71 1 0.00856181 0.0833333 0.253053
81 2 0.00359334 0.1 0.320633
80 2 0.492092 0.1 0.318348
92 2 0.259099 0.0166667 0.353787
78 1 0.765862 0 0.285438
69 1 0.745353 0.25 0.288424
94 2 0.776871 0.266667 0.35327
67 1 0.505191 0.0833333 0.254532
88 2 0.734392 0.0166667 0.350115
100 2 0.0109608 0.35 0.318159
77 1 0.266733 0.5 0.287958
102 2 0.253046 0.516667 0.35167
61 1 0.0207678 0.583333 0.257312
57 1 0.497963 0.583333 0.25326
96 2 0.509252 0.35 0.321611
82 2 0.517531 0.6 0.319498
74 1 0.506013 0.333333 0.254683
84 2 0.99662 0.6 0.32195
75 1 0.75187 0.5 0.285199
98 2 0.755359 0.516667 0.352825
76 1 0.982912 0.333333 0.253683
85 2 0.234121 0.766667 0.351905
63 1 0.267649 0.75 0.285614
90 2 0.00277518 0.85 0.318477
86 2 0.48962 0.85 0.321133
65 1 0.0110918 0.833333 0.253333
83 2 0.745799 0.766667 0.353044
64 1 0.526321 0.833333 0.25538
59 1 0.759327 0.75 0.288089
115 2 0.0187021 0.183333 0.386728
142 2 0.254704 0.183333 0.479003
93 2 0.272526 0.1 0.416997
111 2 0.00954319 0.0166667 0.446221
113 2 0.512067 0.266667 0.447002
112 2 0.507171 0.183333 0.381833
116 2 0.988852 0.266667 0.450016
140 2 0.746607 0.183333 0.481904
89 2 0.753693 0.1 0.415596
110 2 0.512241 0.0166667 0.452282
117 2 0.254631 0.35 0.417197
125 2 0.225049 0.433333 0.479418
103 2 0.248285 0.6 0.41712
97 2 0.49361 0.433333 0.384841
101 2 0.0133539 0.433333 0.383815
118 2 0.493871 0.516667 0.451633
114 2 0.750929 0.35 0.414897
119 2 0.982497 0.516667 0.446402
124 2 0.750584 0.433333 0.48155
99 2 0.727395 0.6 0.415281
130 2 0.260516 0.683333 0.482422
104 2 0.487088 0.683333 0.381882
108 2 0.0115572 0.766667 0.452638
109 2 0.236697 0.85 0.414068
121 2 0.253501 0.933333 0.480231
105 2 0.488296 0.766667 0.446233
107 2 0.991069 0.683333 0.386894
127 2 0.739655 0.683333 0.478813
106 2 0.761392 0.85 0.418563
87 2 0.510643 0.933333 0.3879
91 2 0.985955 0.933333 0.380589
120 2 0.767997 0.933333 0.48078
143 2 0.252041 0.266667 0.545106
139 3 0.25 0.1 0.60706
122 2 0.492733 0.1 0.51639
123 2 0.00801923 0.1 0.510948
156 2 0.49952 0.183333 0.579752
138 2 0.243943 0.0166667 0.545071
158 2 0.994877 0.183333 0.576029
141 2 0.734052 0.266667 0.544319
135 3 0.75 0.1 0.60706
134 2 0.756264 0.0166667 0.544265
159 3 0.25 0.35 0.60706
144 2 0.486356 0.35 0.51089
149 2 0.000962817 0.433333 0.57934
151 3 0.25 0.6 0.60706
150 2 0.244213 0.516667 0.54422
145 2 0.498139 0.433333 0.576729
148 2 0.996067 0.35 0.516803
157 3 0.75 0.35 0.60706
129 2 0.993814 0.6 0.512513
126 2 0.505997 0.6 0.516553
147 3 0.75 0.6 0.60706
146 2 0.755185 0.516667 0.545341
154 2 0.0034091 0.683333 0.577038
131 2 0.259853 0.766667 0.544733
155 3 0.25 0.85 0.60706
136 2 0.00457415 0.85 0.516696
152 2 0.500193 0.683333 0.579293
133 2 0.50201 0.933333 0.576683
137 2 0.998826 0.933333 0.579584
128 2 0.750382 0.766667 0.544776
132 2 0.509189 0.85 0.512391
153 3 0.75 0.85 0.60706
