ITEM: TIMESTEP
397
ITEM: NUMBER OF ATOMS
159
ITEM: BOX BOUNDS pp pp pp
0.0000000000000000e+00 9.1980450096746083e+00
0.0000000000000000e+00 1.1265258452427979e+01
0.0000000000000000e+00 4.1552468811769650e+01
ITEM: ATOMS id type xs ys zs
6 3 0 0.25 0
24 3 0 0 0
26 1 0.249957 0.166667 0.0298954
27 1 0.244998 0.25 0.094756
37 1 0.26199 0 0.0905871
21 1 0.507263 0.0833333 0.0623991
25 1 0.997777 0.0833333 0.0635675
4 3 0.5 0.25 5.34372e-18
20 3 0.5 0 0
22 1 0.750591 0.166667 0.027278
23 1 0.744779 0.25 0.0903187
36 1 0.739228 0 0.096965
7 1 0.247562 0.416667 0.0276768
12 3 0 0.5 0
33 1 0.241339 0.5 0.0897221
28 1 0.488472 0.333333 0.0622027
31 1 0.00203421 0.333333 0.0626496
29 1 0.494566 0.416667 0.124996
9 1 0.513768 0.583333 0.066169
13 1 0.993382 0.583333 0.0606771
5 1 0.748125 0.416667 0.0310151
8 3 0.5 0.5 0
30 1 0.767501 0.5 0.0963092
2 3 0 0.75 0
3 1 0.245262 0.916667 0.0278097
14 1 0.271884 0.666667 0.0294619
15 1 0.263064 0.75 0.0965099
18 1 0.020596 0.833333 0.0632773
19 1 0.00530813 0.916667 0.124901
16 1 0.500887 0.833333 0.0598234
1 1 0.768034 0.916667 0.0337288
10 1 0.729807 0.666667 0.0254542
11 1 0.761236 0.75 0.0916835
72 1 0.245163 0.166667 0.220334
49 1 0.237891 0.0833333 0.154677
66 1 0.482919 0 0.190597
70 1 0.999969 0 0.192983
53 1 0.997818 0.25 0.190342
39 1 0.980732 0.166667 0.127298
38 1 0.501137 0.166667 0.128461
48 1 0.744944 0.0833333 0.161356
68 1 0.762229 0.166667 0.22468
50 1 0.511892 0.25 0.195178
41 1 0.265796 0.583333 0.155719
54 1 0.266883 0.333333 0.160611
55 1 0.253212 0.416667 0.224155
60 1 0.0171632 0.5 0.19163
32 1 0.0162717 0.416667 0.12915
56 1 0.504004 0.5 0.192918
40 1 0.759231 0.583333 0.16069
51 1 0.740643 0.333333 0.155701
52 1 0.764623 0.416667 0.221252
17 1 0.492876 0.916667 0.128174
46 1 0.235256 0.833333 0.161089
47 1 0.250605 0.916667 0.225149
62 1 0.257158 0.666667 0.22134
35 1 0.0039997 0.666667 0.128378
42 1 0.502172 0.75 0.190271
34 1 0.523305 0.666667 0.127915
45 1 0.992925 0.75 0.19495
43 1 0.763696 0.833333 0.156993
44 1 0.735575 0.916667 0.221311
58 1 0.740533 0.666667 0.224309
79 1 0.255522 0 0.287481
73 1 0.254841 0.25 0.28491
95 2 0.253417 0.15 0.349776
71 1 0.00806919 0.0833333 0.257508
100 2 0.00221021 0.233333 0.321682
67 1 0.499472 0.0833333 0.256321
96 2 0.502317 0.233333 0.321079
78 1 0.751178 0 0.285117
69 1 0.752629 0.25 0.286748
94 2 0.751526 0.15 0.351011
77 1 0.249095 0.5 0.286449
102 2 0.243697 0.4 0.350215
85 2 0.252092 0.65 0.350748
57 1 0.496378 0.583333 0.25743
82 2 0.497082 0.483333 0.32241
76 1 0.00255442 0.333333 0.257182
61 1 0.999468 0.583333 0.256685
74 1 0.506767 0.333333 0.257258
84 2 0.99782 0.483333 0.320703
75 1 0.747917 0.5 0.285474
98 2 0.749473 0.4 0.35023
83 2 0.745578 0.65 0.349846
63 1 0.243747 0.75 0.285247
92 2 0.252743 0.9 0.350862
90 2 0.00187479 0.733333 0.322645
81 2 0.00126021 0.983333 0.320626
86 2 0.49578 0.733333 0.320263
64 1 0.50012 0.833333 0.257387
65 1 0.993151 0.833333 0.256691
80 2 0.507098 0.983333 0.322012
59 1 0.751426 0.75 0.28699
88 2 0.757493 0.9 0.350373
117 2 0.24841 0.233333 0.414755
115 2 0.0102516 0.0666667 0.382974
142 2 0.23064 0.0666667 0.47994
125 2 0.256436 0.316667 0.481692
113 2 0.489962 0.15 0.451691
112 2 0.491158 0.0666667 0.385913
97 2 0.496463 0.316667 0.383181
116 2 0.990744 0.15 0.446549
101 2 0.989146 0.316667 0.386105
114 2 0.733559 0.233333 0.415302
140 2 0.748909 0.0666667 0.479666
124 2 0.741345 0.316667 0.478058
103 2 0.243425 0.483333 0.412615
130 2 0.251519 0.566667 0.480076
108 2 0.0127673 0.65 0.446908
119 2 0.0115643 0.4 0.45117
118 2 0.488101 0.4 0.447045
107 2 0.99163 0.566667 0.383234
105 2 0.507886 0.65 0.451827
104 2 0.508393 0.566667 0.386469
99 2 0.754248 0.483333 0.416493
127 2 0.76931 0.566667 0.479181
109 2 0.266572 0.733333 0.414506
93 2 0.245378 0.983333 0.417359
121 2 0.259492 0.816667 0.478021
91 2 0.00979465 0.816667 0.386506
111 2 0.987955 0.9 0.451625
87 2 0.507469 0.816667 0.382773
110 2 0.512284 0.9 0.446373
106 2 0.753394 0.733333 0.41556
89 2 0.757587 0.983333 0.412594
120 2 0.741504 0.816667 0.481937
159 3 0.25 0.233333 0.60706
143 2 0.243833 0.15 0.543955
149 2 0.00427748 0.316667 0.576544
158 2 0.00109167 0.0666667 0.579322
156 2 0.497802 0.0666667 0.57667
145 2 0.500085 0.316667 0.579203
148 2 0.991644 0.233333 0.511701
144 2 0.506722 0.233333 0.516209
157 3 0.75 0.233333 0.60706
141 2 0.754828 0.15 0.544923
151 3 0.25 0.483333 0.60706
150 2 0.261595 0.4 0.544142
131 2 0.244439 0.65 0.544883
129 2 0.00359596 0.483333 0.516448
152 2 0.501588 0.566667 0.576926
154 2 0.999083 0.566667 0.579322
126 2 0.510927 0.483333 0.51221
147 3 0.75 0.483333 0.60706
146 2 0.749759 0.4 0.544764
128 2 0.756379 0.65 0.543924
155 3 0.25 0.733333 0.60706
139 3 0.25 0.983333 0.60706
138 2 0.250369 0.9 0.544638
122 2 0.490205 0.983333 0.511894
132 2 0.493565 0.733333 0.516518
133 2 0.499918 0.816667 0.579292
136 2 0.00701707 0.733333 0.511898
137 2 0.996173 0.816667 0.576738
123 2 0.995726 0.983333 0.516592
153 3 0.75 0.733333 0.60706
135 3 0.75 0.983333 0.60706
134 2 0.738939 0.9 0.544356
