ITEM: TIMESTEP
1460
ITEM: NUMBER OF ATOMS
159
ITEM: BOX BOUNDS pp pp pp
0.0000000000000000e+00 9.1980450096746083e+00
0.0000000000000000e+00 1.1265258452427979e+01
0.0000000000000000e+00 4.1552468811769650e+01
ITEM: ATOMS id type xs ys zs
6 3 0 0.25 0
24 3 0 0 0
26 1 0.253361 0.166667 0.0301544
27 1 0.265834 0.25 0.0954333
37 1 0.250201 0 0.0908574
21 1 0.508329 0.0833333 0.0626184
25 1 0.998292 0.0833333 0.0620186
4 3 0.5 0.25 5.34372e-18
20 3 0.5 0 0
22 1 0.748883 0.166667 0.0271535
23 1 0.75228 0.25 0.0897756
36 1 0.758924 0 0.0955137
7 1 0.248139 0.416667 0.0270005
12 3 0 0.5 0
33 1 0.250379 0.5 0.0890591
28 1 0.49913 0.333333 0.061342
31 1 0.0115327 0.333333 0.0628714
13 1 0.997423 0.583333 0.0608882
9 1 0.508773 0.583333 0.0658172
5 1 0.755102 0.416667 0.0299814
8 3 0.5 0.5 0
30 1 0.758735 0.5 0.0937825
2 3 0 0.75 0
3 1 0.243016 0.916667 0.0291721
14 1 0.271865 0.666667 0.0276407
15 1 0.248038 0.75 0.0936157
18 1 0.00350997 0.833333 0.0628812
17 1 0.496033 0.916667 0.122541
16 1 0.49816 0.833333 0.0592365
1 1 0.758338 0.916667 0.0318593
10 1 0.729631 0.666667 0.0256783
11 1 0.752364 0.75 0.0917804
39 1 0.00334558 0.166667 0.125731
72 1 0.261176 0.166667 0.221401
49 1 0.260526 0.0833333 0.155121
70 1 0.0264828 0 0.1912
53 1 0.00181498 0.25 0.191727
66 1 0.50617 0 0.188935
38 1 0.524309 0.166667 0.127623
48 1 0.769675 0.0833333 0.160931
68 1 0.744291 0.166667 0.223621
50 1 0.504826 0.25 0.189919
41 1 0.248523 0.583333 0.154097
54 1 0.247059 0.333333 0.160021
55 1 0.247069 0.416667 0.224388
60 1 0.00278782 0.5 0.190983
32 1 0.0110425 0.416667 0.12591
56 1 0.486283 0.5 0.190832
29 1 0.499508 0.416667 0.127212
40 1 0.74521 0.583333 0.158965
51 1 0.763234 0.333333 0.155343
52 1 0.743204 0.416667 0.21935
46 1 0.265918 0.833333 0.160104
47 1 0.267792 0.916667 0.224927
62 1 0.245105 0.666667 0.219033
19 1 0.0134436 0.916667 0.127274
35 1 0.992023 0.666667 0.126633
34 1 0.502842 0.666667 0.127743
44 1 0.763287 0.916667 0.221178
58 1 0.767508 0.666667 0.224591
43 1 0.744536 0.833333 0.155515
42 1 0.516709 0.75 0.193142
45 1 0.99474 0.75 0.188392
79 1 0.241081 0 0.287344
73 1 0.249127 0.25 0.284932
95 2 0.253185 0.275 0.351068
71 1 0.000497962 0.0833333 0.254181
81 2 0.00420838 0.108333 0.321013
80 2 0.492758 0.108333 0.318922
92 2 0.258068 0.025 0.353321
78 1 0.75638 0 0.285766
69 1 0.747206 0.25 0.28803
94 2 0.774964 0.275 0.352943
67 1 0.501958 0.0833333 0.25478
88 2 0.739166 0.025 0.350303
100 2 0.0101622 0.358333 0.318476
77 1 0.265555 0.5 0.287331
102 2 0.255153 0.525 0.351302
61 1 0.0175176 0.583333 0.256911
57 1 0.500411 0.583333 0.253741
96 2 0.510729 0.358333 0.321525
82 2 0.516411 0.608333 0.319823
74 1 0.504734 0.333333 0.255149
84 2 1.00214 0.608333 0.321401
75 1 0.753308 0.5 0.284982
98 2 0.759635 0.525 0.35196
76 1 0.984927 0.333333 0.253839
85 2 0.236787 0.775 0.351573
63 1 0.264463 0.75 0.285884
90 2 -0.00102124 0.858333 0.318952
86 2 0.49332 0.858333 0.320806
65 1 0.0104582 0.833333 0.253726
83 2 0.746827 0.775 0.352623
64 1 0.520116 0.833333 0.255262
59 1 0.758645 0.75 0.287286
115 2 0.0188412 0.191667 0.386591
142 2 0.25603 0.191667 0.478734
93 2 0.273065 0.108333 0.416667
111 2 0.0103807 0.025 0.4463
113 2 0.513721 0.275 0.447003
112 2 0.508056 0.191667 0.38203
116 2 0.990219 0.275 0.450049
140 2 0.747892 0.191667 0.481884
89 2 0.754526 0.108333 0.415525
110 2 0.513156 0.025 0.452028
117 2 0.256415 0.358333 0.416923
125 2 0.226189 0.441667 0.479263
103 2 0.249178 0.608333 0.416897
97 2 0.496261 0.441667 0.384728
101 2 0.0147115 0.441667 0.383608
118 2 0.49507 0.525 0.451524
114 2 0.753043 0.358333 0.414569
119 2 0.983575 0.525 0.446285
124 2 0.751357 0.441667 0.4814
99 2 0.729523 0.608333 0.414848
130 2 0.261785 0.691667 0.482278
104 2 0.488256 0.691667 0.382111
108 2 0.012738 0.775 0.45239
109 2 0.239337 0.858333 0.413989
121 2 0.254059 0.941667 0.480151
105 2 0.489949 0.775 0.446163
107 2 0.992944 0.691667 0.386485
127 2 0.740661 0.691667 0.478534
106 2 0.761596 0.858333 0.418169
87 2 0.511217 0.941667 0.387157
91 2 0.98907 0.941667 0.381286
120 2 0.769266 0.941667 0.480598
143 2 0.252287 0.275 0.545028
139 3 0.25 0.108333 0.60706
122 2 0.49329 0.108333 0.516191
123 2 0.00922291 0.108333 0.511072
156 2 0.499589 0.191667 0.579616
138 2 0.244916 0.025 0.545081
158 2 0.994985 0.191667 0.576058
141 2 0.734525 0.275 0.544269
135 3 0.75 0.108333 0.60706
134 2 0.756603 0.025 0.544161
159 3 0.25 0.358333 0.60706
144 2 0.486882 0.358333 0.510937
149 2 0.00109326 0.441667 0.579296
151 3 0.25 0.608333 0.60706
150 2 0.24452 0.525 0.544151
145 2 0.498367 0.441667 0.576712
148 2 0.996676 0.358333 0.516721
157 3 0.75 0.358333 0.60706
129 2 0.994526 0.608333 0.512325
126 2 0.50686 0.608333 0.516536
147 3 0.75 0.608333 0.60706
146 2 0.755966 0.525 0.545269
154 2 0.0036775 0.691667 0.576957
131 2 0.26044 0.775 0.544639
155 3 0.25 0.858333 0.60706
136 2 0.00520542 0.858333 0.516637
152 2 0.500238 0.691667 0.579271
133 2 0.502417 0.941667 0.576577
137 2 0.998894 0.941667 0.579483
128 2 0.750809 0.775 0.544703
132 2 0.510038 0.858333 0.512212
153 3 0.75 0.858333 0.60706
