ITEM: TIMESTEP
1078
ITEM: NUMBER OF ATOMS
159
ITEM: BOX BOUNDS pp pp pp
0.0000000000000000e+00 9.1980450096746083e+00
0.0000000000000000e+00 1.1265258452427979e+01
0.0000000000000000e+00 4.1552468811769650e+01
ITEM: ATOMS id type xs ys zs
6 3 0 0.25 0
24 3 0 0 0
26 1 0.247637 0.166667 0.0294707
27 1 0.249243 0.25 0.0951952
37 1 0.245702 0 0.0899354
21 1 0.496179 0.0833333 0.0617886
25 1 0.993376 0.0833333 0.0616543
4 3 0.5 0.25 5.34372e-18
20 3 0.5 0 0
22 1 0.748905 0.166667 0.0267645
23 1 0.739294 0.25 0.0889783
36 1 0.737451 0 0.0939737
39 1 0.979279 0.166667 0.12338
7 1 0.24694 0.416667 0.0263627
12 3 0 0.5 0
33 1 0.243979 0.5 0.0881653
28 1 0.487667 0.333333 0.0611039
31 1 0.00350682 0.333333 0.0623794
29 1 0.492964 0.416667 0.124534
9 1 0.513457 0.583333 0.0652398
13 1 0.993239 0.583333 0.0600982
5 1 0.750325 0.416667 0.0301687
8 3 0.5 0.5 0
30 1 0.762379 0.5 0.0949674
2 3 0 0.75 0
3 1 0.244998 0.916667 0.0281442
14 1 0.273383 0.666667 0.0281568
15 1 0.245969 0.75 0.0930084
18 1 0.00422143 0.833333 0.0622831
17 1 0.482833 0.916667 0.122395
16 1 0.500836 0.833333 0.058882
1 1 0.75815 0.916667 0.0310219
10 1 0.728605 0.666667 0.0237708
11 1 0.755904 0.75 0.0906343
72 1 0.237519 0.166667 0.215781
49 1 0.228809 0.0833333 0.152817
66 1 0.474005 0 0.184019
70 1 0.0050262 0 0.193569
67 1 0.485704 0.0833333 0.24728
38 1 0.50209 0.166667 0.12729
53 1 0.987629 0.25 0.185612
48 1 0.750866 0.0833333 0.161379
68 1 0.766308 0.166667 0.227797
50 1 0.511409 0.25 0.19188
41 1 0.252133 0.583333 0.153148
54 1 0.256527 0.333333 0.16115
55 1 0.256963 0.416667 0.228734
60 1 0.00794975 0.5 0.191167
32 1 0.01121 0.416667 0.127024
56 1 0.485046 0.5 0.18837
57 1 0.475227 0.583333 0.250084
40 1 0.738735 0.583333 0.159445
51 1 0.743375 0.333333 0.153135
52 1 0.743847 0.416667 0.215346
76 1 0.98455 0.333333 0.248289
46 1 0.237168 0.833333 0.160372
47 1 0.264871 0.916667 0.228999
62 1 0.224645 0.666667 0.215454
34 1 0.499112 0.666667 0.126554
35 1 0.998617 0.666667 0.125761
19 1 0.991014 0.916667 0.126125
42 1 0.500546 0.75 0.193559
45 1 0.967128 0.75 0.186476
43 1 0.73133 0.833333 0.153084
44 1 0.724581 0.916667 0.216004
58 1 0.757678 0.666667 0.229421
65 1 0.980024 0.833333 0.248514
79 1 0.239043 0 0.294946
73 1 0.276193 0.25 0.280928
95 2 0.225722 0.216667 0.348492
71 1 0.0310262 0.0833333 0.257281
100 2 0.0137671 0.3 0.310991
96 2 0.483807 0.3 0.325294
81 2 0.983672 0.05 0.325512
78 1 0.77413 0 0.280758
69 1 0.737311 0.25 0.293894
94 2 0.774937 0.216667 0.357025
80 2 0.512886 0.05 0.310246
77 1 0.238276 0.5 0.296077
102 2 0.267672 0.466667 0.358775
61 1 0.0262176 0.583333 0.258554
82 2 0.514799 0.55 0.313095
74 1 0.530092 0.333333 0.255112
84 2 0.975495 0.55 0.325861
75 1 0.767394 0.5 0.281395
98 2 0.722046 0.466667 0.351688
85 2 0.220339 0.716667 0.349142
63 1 0.267702 0.75 0.281293
92 2 0.271592 0.966667 0.357934
90 2 0.011706 0.8 0.311552
86 2 0.477835 0.8 0.326164
83 2 0.765963 0.716667 0.358913
64 1 0.526676 0.833333 0.259175
59 1 0.738216 0.75 0.29605
88 2 0.723904 0.966667 0.347603
117 2 0.242796 0.3 0.415542
115 2 0.0257311 0.133333 0.391177
142 2 0.261224 0.133333 0.481032
112 2 0.493722 0.133333 0.376986
116 2 0.00277442 0.216667 0.453924
93 2 0.283411 0.05 0.419951
113 2 0.513089 0.216667 0.446315
114 2 0.770224 0.3 0.41896
140 2 0.751065 0.133333 0.480958
89 2 0.750841 0.05 0.413606
125 2 0.24326 0.383333 0.480214
103 2 0.264894 0.55 0.421408
130 2 0.269912 0.633333 0.483548
107 2 0.0152476 0.633333 0.39094
104 2 0.485265 0.633333 0.378977
119 2 -0.00251503 0.466667 0.44574
97 2 0.509732 0.383333 0.391574
101 2 0.994128 0.383333 0.377983
124 2 0.758699 0.383333 0.482118
118 2 0.507483 0.466667 0.453834
99 2 0.740847 0.55 0.415061
127 2 0.749209 0.633333 0.479878
108 2 0.0204498 0.716667 0.453952
109 2 0.246906 0.8 0.413136
121 2 0.257729 0.883333 0.480185
111 2 0.0148859 0.966667 0.445914
105 2 0.501631 0.716667 0.445815
106 2 0.77706 0.8 0.421419
87 2 0.526066 0.883333 0.391045
110 2 0.518858 0.966667 0.454133
91 2 0.987283 0.883333 0.377634
120 2 0.773101 0.883333 0.482417
159 3 0.25 0.3 0.60706
143 2 0.256352 0.216667 0.545289
148 2 0.0022174 0.3 0.517709
139 3 0.25 0.05 0.60706
123 2 0.00975759 0.05 0.512965
158 2 -0.00104219 0.133333 0.577181
144 2 0.498497 0.3 0.512188
122 2 0.49944 0.05 0.517199
156 2 0.500475 0.133333 0.580127
157 3 0.75 0.3 0.60706
141 2 0.74301 0.216667 0.544487
135 3 0.75 0.05 0.60706
149 2 0.000987815 0.383333 0.580445
151 3 0.25 0.55 0.60706
150 2 0.246492 0.466667 0.54478
129 2 0.0030481 0.55 0.511561
154 2 0.0041147 0.633333 0.576996
152 2 0.500595 0.633333 0.580264
145 2 0.501068 0.383333 0.577124
126 2 0.508864 0.55 0.517988
147 3 0.75 0.55 0.60706
146 2 0.761454 0.466667 0.545424
131 2 0.261626 0.716667 0.545414
155 3 0.25 0.8 0.60706
138 2 0.249106 0.966667 0.545068
136 2 0.00758856 0.8 0.517558
133 2 0.502525 0.883333 0.577242
137 2 0.999673 0.883333 0.580059
128 2 0.752869 0.716667 0.545121
132 2 0.512887 0.8 0.512762
153 3 0.75 0.8 0.60706
134 2 0.757195 0.966667 0.545045
