ITEM: TIMESTEP
1307
ITEM: NUMBER OF ATOMS
159
ITEM: BOX BOUNDS pp pp pp
0.0000000000000000e+00 9.1980450096746083e+00
0.0000000000000000e+00 1.1265258452427979e+01
0.0000000000000000e+00 4.1552468811769650e+01
ITEM: ATOMS id type xs ys zs
6 3 0 0.25 0
24 3 0 0 0
26 1 0.250642 0.166667 0.0299099
27 1 0.262916 0.25 0.0952955
37 1 0.24887 0 0.0906043
21 1 0.50368 0.0833333 0.0620848
25 1 0.995589 0.0833333 0.061851
4 3 0.5 0.25 5.34372e-18
20 3 0.5 0 0
22 1 0.748956 0.166667 0.027013
23 1 0.747387 0.25 0.0894772
36 1 0.750113 0 0.094444
39 1 0.998002 0.166667 0.124469
7 1 0.247578 0.416667 0.0266547
12 3 0 0.5 0
33 1 0.252895 0.5 0.0886223
28 1 0.495803 0.333333 0.0610576
31 1 0.0105778 0.333333 0.0629031
9 1 0.517791 0.583333 0.0656508
13 1 1.00064 0.583333 0.060344
5 1 0.754545 0.416667 0.0302476
8 3 0.5 0.5 0
30 1 0.769451 0.5 0.0945661
2 3 0 0.75 0
3 1 0.244621 0.916667 0.0288287
14 1 0.277959 0.666667 0.027948
15 1 0.246708 0.75 0.0930815
18 1 0.00363043 0.833333 0.0622538
17 1 0.490291 0.916667 0.122805
16 1 0.502626 0.833333 0.059569
1 1 0.757874 0.916667 0.0311292
10 1 0.731804 0.666667 0.0245867
11 1 0.75871 0.75 0.0914519
72 1 0.270886 0.166667 0.219192
49 1 0.249313 0.0833333 0.154451
66 1 0.500396 0 0.186286
70 1 0.0233209 0 0.191244
53 1 0.00886395 0.25 0.190051
38 1 0.517989 0.166667 0.127076
48 1 0.770079 0.0833333 0.160589
68 1 0.760303 0.166667 0.223771
50 1 0.521331 0.25 0.189364
41 1 0.256762 0.583333 0.154288
54 1 0.262281 0.333333 0.159953
55 1 0.240527 0.416667 0.225029
60 1 0.00382482 0.5 0.190242
32 1 0.0209771 0.416667 0.126998
56 1 0.490055 0.5 0.190839
29 1 0.50501 0.416667 0.125832
40 1 0.740653 0.583333 0.158907
51 1 0.764498 0.333333 0.154411
52 1 0.754305 0.416667 0.217857
46 1 0.256266 0.833333 0.15972
47 1 0.275297 0.916667 0.225832
62 1 0.237264 0.666667 0.217246
34 1 0.500859 0.666667 0.126808
35 1 0.000380629 0.666667 0.126881
19 1 0.00595778 0.916667 0.126246
44 1 0.751875 0.916667 0.219092
58 1 0.763043 0.666667 0.226836
43 1 0.740926 0.833333 0.15421
42 1 0.513226 0.75 0.193276
45 1 0.982186 0.75 0.187949
79 1 0.244705 0 0.288877
73 1 0.267763 0.25 0.283806
95 2 0.246859 0.25 0.353362
71 1 0.0265369 0.0833333 0.252456
100 2 0.0199522 0.333333 0.318075
96 2 0.494412 0.333333 0.322159
81 2 0.00570777 0.0833333 0.322066
78 1 0.780137 0 0.283898
69 1 0.737453 0.25 0.289132
94 2 0.778283 0.25 0.353277
80 2 0.497121 0.0833333 0.316386
67 1 0.509969 0.0833333 0.252376
77 1 0.256146 0.5 0.289479
102 2 0.25317 0.5 0.353026
61 1 0.0191063 0.583333 0.257708
57 1 0.481975 0.583333 0.252559
82 2 0.512792 0.583333 0.318099
74 1 0.514182 0.333333 0.252516
84 2 0.976977 0.583333 0.323484
75 1 0.74902 0.5 0.284284
98 2 0.732343 0.5 0.354513
76 1 0.98339 0.333333 0.254203
85 2 0.225205 0.75 0.352507
63 1 0.264274 0.75 0.284823
92 2 0.26498 1 0.354712
90 2 0.00715422 0.833333 0.316747
86 2 0.481176 0.833333 0.323047
83 2 0.743877 0.75 0.354489
64 1 0.52564 0.833333 0.256908
59 1 0.752757 0.75 0.290013
88 2 0.730986 1 0.349078
65 1 1.00493 0.833333 0.251662
117 2 0.241925 0.333333 0.418141
115 2 0.0122313 0.166667 0.388737
142 2 0.25402 0.166667 0.479613
93 2 0.273714 0.0833333 0.41698
113 2 0.508126 0.25 0.446459
112 2 0.511807 0.166667 0.380724
116 2 0.987371 0.25 0.451933
114 2 0.753192 0.333333 0.415607
140 2 0.741343 0.166667 0.481694
89 2 0.752384 0.0833333 0.415987
125 2 0.228519 0.416667 0.480295
103 2 0.245213 0.583333 0.418063
130 2 0.260514 0.666667 0.482708
104 2 0.483069 0.666667 0.382098
97 2 0.486448 0.416667 0.387287
101 2 0.00682877 0.416667 0.383423
118 2 0.492619 0.5 0.452013
107 2 0.988605 0.666667 0.388304
119 2 0.983639 0.5 0.447112
124 2 0.747904 0.416667 0.481626
99 2 0.726771 0.583333 0.416318
127 2 0.739551 0.666667 0.47957
108 2 0.0113337 0.75 0.453
109 2 0.236222 0.833333 0.414287
121 2 0.252659 0.916667 0.480773
111 2 0.0121901 1 0.446752
105 2 0.488268 0.75 0.446554
106 2 0.763546 0.833333 0.419543
87 2 0.514152 0.916667 0.389524
110 2 0.508206 1 0.453252
91 2 0.982802 0.916667 0.379825
120 2 0.76693 0.916667 0.481048
159 3 0.25 0.333333 0.60706
143 2 0.251437 0.25 0.545212
139 3 0.25 0.0833333 0.60706
144 2 0.487536 0.333333 0.51122
122 2 0.493332 0.0833333 0.517183
123 2 0.00420057 0.0833333 0.512039
148 2 0.99652 0.333333 0.517259
158 2 0.995935 0.166667 0.576808
156 2 0.499853 0.166667 0.580079
157 3 0.75 0.333333 0.60706
141 2 0.736669 0.25 0.54443
135 3 0.75 0.0833333 0.60706
149 2 0.000739116 0.416667 0.579831
151 3 0.25 0.583333 0.60706
150 2 0.243676 0.5 0.544553
154 2 0.00315015 0.666667 0.577203
152 2 0.500188 0.666667 0.579555
129 2 0.994317 0.583333 0.512499
145 2 0.498602 0.416667 0.576694
126 2 0.505431 0.583333 0.516933
147 3 0.75 0.583333 0.60706
146 2 0.75602 0.5 0.54539
131 2 0.259104 0.75 0.544946
155 3 0.25 0.833333 0.60706
138 2 0.243059 1 0.545043
136 2 0.00330774 0.833333 0.516895
133 2 0.500811 0.916667 0.577235
137 2 0.999037 0.916667 0.579758
128 2 0.750379 0.75 0.54507
132 2 0.509046 0.833333 0.513019
153 3 0.75 0.833333 0.60706
134 2 0.755231 1 0.544631
