ITEM: TIMESTEP
985
ITEM: NUMBER OF ATOMS
159
ITEM: BOX BOUNDS pp pp pp
0.0000000000000000e+00 9.1980450096746083e+00
0.0000000000000000e+00 1.1265258452427979e+01
0.0000000000000000e+00 4.1552468811769650e+01
ITEM: ATOMS id type xs ys zs
6 3 0 0.25 0
24 3 0 0 0
26 1 0.24777 0.166667 0.0292593
27 1 0.245152 0.25 0.0945827
37 1 0.248183 0 0.0899514
21 1 0.496494 0.0833333 0.0618476
25 1 0.994666 0.0833333 0.0618449
4 3 0.5 0.25 5.34372e-18
20 3 0.5 0 0
22 1 0.749266 0.166667 0.0267496
23 1 0.739002 0.25 0.0889726
36 1 0.736551 0 0.094059
39 1 0.97648 0.166667 0.123788
7 1 0.246934 0.416667 0.0264077
12 3 0 0.5 0
33 1 0.241163 0.5 0.0880361
28 1 0.48712 0.333333 0.0610761
31 1 0.000617436 0.333333 0.0623512
29 1 0.488279 0.416667 0.123822
9 1 0.511254 0.583333 0.0648861
13 1 0.990348 0.583333 0.0600899
5 1 0.749028 0.416667 0.0300328
8 3 0.5 0.5 0
30 1 0.759015 0.5 0.0950082
2 3 0 0.75 0
3 1 0.244918 0.916667 0.0280146
14 1 0.270816 0.666667 0.0280997
15 1 0.249045 0.75 0.0931877
18 1 0.00663009 0.833333 0.0624153
17 1 0.485027 0.916667 0.122914
16 1 0.499894 0.833333 0.0587146
1 1 0.759521 0.916667 0.0312934
10 1 0.727817 0.666667 0.0236358
11 1 0.754702 0.75 0.0903571
72 1 0.232903 0.166667 0.21575
49 1 0.226945 0.0833333 0.152644
66 1 0.470823 0 0.184529
70 1 0.00313876 0 0.193533
67 1 0.48389 0.0833333 0.24808
38 1 0.498505 0.166667 0.127591
53 1 0.982478 0.25 0.18574
48 1 0.746559 0.0833333 0.161619
68 1 0.765168 0.166667 0.228624
50 1 0.50801 0.25 0.19328
41 1 0.250444 0.583333 0.152967
54 1 0.253984 0.333333 0.161126
55 1 0.261566 0.416667 0.228669
60 1 0.00724406 0.5 0.191889
32 1 0.00811209 0.416667 0.127351
56 1 0.486517 0.5 0.186952
57 1 0.477032 0.583333 0.248905
40 1 0.743386 0.583333 0.159266
51 1 0.737668 0.333333 0.153002
52 1 0.739266 0.416667 0.215535
76 1 0.984731 0.333333 0.248577
46 1 0.236142 0.833333 0.159989
47 1 0.262728 0.916667 0.228757
62 1 0.226646 0.666667 0.215185
34 1 0.501341 0.666667 0.126463
35 1 0.998302 0.666667 0.125264
19 1 0.990796 0.916667 0.125808
42 1 0.500515 0.75 0.1928
45 1 0.970514 0.75 0.186394
43 1 0.734766 0.833333 0.153078
44 1 0.723726 0.916667 0.215765
58 1 0.758063 0.666667 0.228681
65 1 0.979157 0.833333 0.248631
79 1 0.237946 0 0.295339
73 1 0.274454 0.25 0.280373
95 2 0.224959 0.2 0.348876
71 1 0.0292428 0.0833333 0.257826
100 2 0.0161534 0.283333 0.311149
96 2 0.482177 0.283333 0.326388
81 2 0.982421 0.0333333 0.326413
78 1 0.772255 0 0.280504
69 1 0.738379 0.25 0.295436
94 2 0.77283 0.2 0.358059
80 2 0.514567 0.0333333 0.310975
77 1 0.235636 0.5 0.295736
102 2 0.2684 0.45 0.358306
61 1 0.0266194 0.583333 0.25799
82 2 0.513659 0.533333 0.311378
74 1 0.53101 0.333333 0.257217
84 2 0.977563 0.533333 0.326375
75 1 0.769247 0.5 0.280251
98 2 0.721478 0.45 0.349428
85 2 0.221583 0.7 0.348865
63 1 0.268025 0.75 0.280485
92 2 0.271181 0.95 0.358012
90 2 0.0123567 0.783333 0.311371
86 2 0.4788 0.783333 0.326442
83 2 0.767336 0.7 0.358231
64 1 0.525382 0.833333 0.258472
59 1 0.735896 0.75 0.295519
88 2 0.724362 0.95 0.348409
117 2 0.244723 0.283333 0.414522
115 2 0.0237071 0.116667 0.391466
142 2 0.262659 0.116667 0.481721
112 2 0.49196 0.116667 0.377755
116 2 0.00758542 0.2 0.454127
93 2 0.27963 0.0333333 0.420313
113 2 0.509405 0.2 0.446458
114 2 0.771389 0.283333 0.420275
140 2 0.751333 0.116667 0.480745
89 2 0.749056 0.0333333 0.414021
125 2 0.247647 0.366667 0.480024
103 2 0.269959 0.533333 0.421001
130 2 0.270044 0.616667 0.482984
107 2 0.0186561 0.616667 0.391061
104 2 0.486793 0.616667 0.37816
119 2 0.00192312 0.45 0.445975
97 2 0.516467 0.366667 0.391393
101 2 0.989994 0.366667 0.37797
124 2 0.762507 0.366667 0.482538
118 2 0.511476 0.45 0.453971
99 2 0.744085 0.533333 0.413909
127 2 0.751646 0.616667 0.479728
108 2 0.019297 0.7 0.454056
109 2 0.247427 0.783333 0.413413
121 2 0.256187 0.866667 0.480359
111 2 0.0127101 0.95 0.446259
105 2 0.505045 0.7 0.445735
106 2 0.777513 0.783333 0.42094
87 2 0.524658 0.866667 0.391241
110 2 0.516358 0.95 0.454219
91 2 0.988746 0.866667 0.377994
120 2 0.770479 0.866667 0.482204
159 3 0.25 0.283333 0.60706
143 2 0.257641 0.2 0.545313
148 2 0.00385185 0.283333 0.517739
139 3 0.25 0.0333333 0.60706
123 2 0.00797828 0.0333333 0.513102
144 2 0.502289 0.283333 0.512508
122 2 0.501548 0.0333333 0.517418
158 2 1.00024 0.116667 0.577364
156 2 0.500483 0.116667 0.580199
157 3 0.75 0.283333 0.60706
141 2 0.74579 0.2 0.544712
135 3 0.75 0.0333333 0.60706
149 2 0.000850803 0.366667 0.580339
151 3 0.25 0.533333 0.60706
150 2 0.248536 0.45 0.544782
129 2 0.00606878 0.533333 0.512233
154 2 0.00349656 0.616667 0.577219
152 2 0.500425 0.616667 0.580199
145 2 0.501709 0.366667 0.577272
126 2 0.50788 0.533333 0.51786
147 3 0.75 0.533333 0.60706
146 2 0.760765 0.45 0.545422
131 2 0.260363 0.7 0.545276
155 3 0.25 0.783333 0.60706
138 2 0.248923 0.95 0.54497
136 2 0.00608423 0.783333 0.517517
133 2 0.502006 0.866667 0.577294
137 2 0.999987 0.866667 0.580068
128 2 0.752057 0.7 0.545003
132 2 0.511764 0.783333 0.512797
153 3 0.75 0.783333 0.60706
134 2 0.757546 0.95 0.54513
