ITEM: TIMESTEP
414
ITEM: NUMBER OF ATOMS
80
ITEM: BOX BOUNDS pp pp pp
0.0000000000000000e+00 5.6825487348095471e+00
0.0000000000000000e+00 7.1176886540000002e+00
0.0000000000000000e+00 7.6640963165803498e+01
ITEM: ATOMS id type xs ys zs
1 1 0 0 0
2 1 1 0.25 0.0298381
5 1 0 0.5 0
6 1 1 0.75 0.0298381
3 1 0.379583 3.54825e-05 0.177804
7 1 0.379583 0.499965 0.177804
4 1 0.371121 0.25 0.208365
8 1 0.371125 0.75 0.208362
9 1 0.872585 1.44325e-05 0.202837
13 1 0.872585 0.499986 0.202837
10 1 0.998558 0.25 0.237737
11 1 0.508938 0.999993 0.238491
14 1 0.998565 0.75 0.237736
15 1 0.508938 0.500007 0.238491
12 1 0.370932 0.25 0.270404
16 1 0.370928 0.75 0.270404
17 1 0.872594 0.999996 0.270826
18 1 0.00298213 0.25 0.303428
19 1 0.502471 3.95406e-07 0.303242
21 1 0.872594 0.500004 0.270826
22 1 0.00298131 0.75 0.303429
23 1 0.502471 0.5 0.303242
20 1 0.37193 0.25 0.336064
24 1 0.371931 0.75 0.336064
25 1 0.871633 1.23872e-06 0.336061
29 1 0.871633 0.499999 0.336061
26 1 0.00270522 0.25 0.36878
27 1 0.502693 2.29395e-07 0.368802
28 1 0.371773 0.25 0.401522
30 1 0.00270502 0.75 0.36878
31 1 0.502693 0.5 0.368802
32 1 0.371772 0.75 0.401522
33 1 0.871804 1 0.401517
37 1 0.871804 0.5 0.401517
34 1 0.00269307 0.25 0.434248
35 1 0.502702 1 0.434247
38 1 0.00269323 0.75 0.434248
39 1 0.502702 0.5 0.434247
36 1 0.3718 0.25 0.466945
40 1 0.3718 0.75 0.466945
41 1 0.871798 4.20845e-08 0.466946
45 1 0.871798 0.5 0.466946
42 1 0.00269917 0.333333 0.500568
43 1 0.502697 0.0833334 0.500569
46 1 0.0026991 0.833333 0.500568
47 1 0.502697 0.583333 0.500569
44 1 0.371776 0.333333 0.533266
48 1 0.371776 0.833333 0.533266
49 1 0.871783 0.0833333 0.533265
50 1 0.00267534 0.333333 0.565995
51 1 0.502698 0.0833333 0.565992
53 1 0.871783 0.583333 0.533265
54 1 0.00267536 0.833333 0.565995
55 1 0.502698 0.583333 0.565992
52 1 0.371784 0.333333 0.598713
56 1 0.371784 0.833333 0.598713
57 1 0.871773 0.0833333 0.59873
61 1 0.871773 0.583333 0.59873
58 1 0.00280372 0.333333 0.63145
59 1 0.502578 0.0833333 0.631449
62 1 0.00280372 0.833333 0.63145
63 1 0.502578 0.583333 0.631449
60 1 0.371965 0.333333 0.664248
64 1 0.371965 0.833333 0.664248
65 1 0.87158 0.0833333 0.664105
69 1 0.87158 0.583333 0.664105
66 1 0.00207867 0.333333 0.696744
67 1 0.503324 0.0833333 0.697058
70 1 0.00207867 0.833333 0.696744
71 1 0.503324 0.583333 0.697058
68 1 0.367415 0.333333 0.729185
72 1 0.367415 0.833333 0.729185
73 1 0.875288 0.0833333 0.729769
77 1 0.875288 0.583333 0.729769
74 1 0 0.333333 0.764068
75 1 0.501436 0.0833333 0.759866
78 1 0 0.833333 0.764068
79 1 0.501436 0.583333 0.759866
76 1 0.5 0.333333 0.790877
80 1 0.5 0.833333 0.790877
