ITEM: TIMESTEP
358
ITEM: NUMBER OF ATOMS
80
ITEM: BOX BOUNDS pp pp pp
0.0000000000000000e+00 4.6533240000000005e+00
0.0000000000000000e+00 5.8680000000000003e+00
0.0000000000000000e+00 6.5818347000000017e+01
ITEM: ATOMS id type xs ys zs
1 1 8.95674e-10 1.2528e-12 0
2 1 1.71514e-09 0.25 0.0353044
3 1 0.5 1 0.0225318
5 1 7.48574e-10 0.5 0
6 1 1.71514e-09 0.75 0.0353044
7 1 0.5 0.5 0.0225318
4 1 0.5 0.25 0.0617084
8 1 0.5 0.75 0.0617084
9 1 1 1 0.0750569
11 1 0.5 3.51154e-14 0.100272
13 1 1 0.5 0.0750569
15 1 0.5 0.5 0.100272
10 1 1 0.25 0.113509
12 1 0.5 0.25 0.139213
14 1 1 0.75 0.113509
16 1 0.5 0.75 0.139213
17 1 1 1 0.152312
21 1 1 0.5 0.152312
18 1 1.47122e-12 0.25 0.191075
19 1 0.5 5.60219e-15 0.177986
20 1 0.5 0.25 0.216768
22 1 1.47108e-12 0.75 0.191075
23 1 0.5 0.5 0.177986
24 1 0.5 0.75 0.216768
25 1 1 1.16538e-15 0.229862
26 1 1 0.25 0.268673
27 1 0.5 1.36224e-15 0.255537
29 1 4.12409e-14 0.5 0.229862
30 1 1 0.75 0.268673
31 1 0.5 0.5 0.255537
28 1 0.5 0.25 0.294275
32 1 0.5 0.75 0.294275
33 1 1 6.05439e-16 0.307501
37 1 1 0.5 0.307501
35 1 0.5 1 0.333059
39 1 0.5 0.5 0.333059
34 1 1.66118e-15 0.25 0.346637
36 1 0.5 0.25 0.371402
38 1 1.62584e-15 0.75 0.346637
40 1 0.5 0.75 0.371402
41 1 9.23124e-15 3.02719e-16 0.384973
45 1 9.2077e-15 0.5 0.384973
42 1 3.11442e-14 0.65 0.425088
43 1 0.5 0.4 0.411518
46 1 3.10152e-14 0.15 0.425088
47 1 0.5 0.9 0.411518
44 1 0.5 0.65 0.449854
48 1 0.5 0.15 0.449854
49 1 1 0.4 0.46343
51 1 0.5 0.4 0.488991
53 1 1 0.9 0.46343
55 1 0.5 0.9 0.488991
50 1 1 0.65 0.502211
52 1 0.5 0.65 0.527822
54 1 1 0.15 0.502211
56 1 0.5 0.15 0.527822
57 1 6.29841e-12 0.4 0.540943
61 1 6.2987e-12 0.9 0.540943
58 1 4.65126e-11 0.65 0.579702
59 1 0.5 0.4 0.566639
60 1 0.5 0.65 0.605425
62 1 4.65126e-11 0.15 0.579702
63 1 0.5 0.9 0.566639
64 1 0.5 0.15 0.605425
65 1 1 0.4 0.618405
66 1 1 0.65 0.657263
67 1 0.5 0.4 0.644283
69 1 1 0.9 0.618405
70 1 1 0.15 0.657263
71 1 0.5 0.9 0.644283
68 1 0.5 0.65 0.682786
72 1 0.5 0.15 0.682786
73 1 3.64639e-09 0.4 0.69553
77 1 3.64639e-09 0.9 0.69553
75 1 0.5 0.4 0.723127
79 1 0.5 0.9 0.723127
74 1 5.69983e-08 0.65 0.733495
76 1 0.5 0.65 0.759231
78 1 5.69983e-08 0.15 0.733495
80 1 0.5 0.15 0.759231
