ITEM: TIMESTEP
211
ITEM: NUMBER OF ATOMS
80
ITEM: BOX BOUNDS pp pp pp
0.0000000000000000e+00 4.6533240000000005e+00
0.0000000000000000e+00 5.8680000000000003e+00
0.0000000000000000e+00 6.5818347000000017e+01
ITEM: ATOMS id type xs ys zs
1 1 8.95674e-10 1.2528e-12 0
2 1 1.71514e-09 0.25 0.035225
3 1 0.5 1 0.022446
5 1 7.48574e-10 0.5 0
6 1 1.71514e-09 0.75 0.035225
7 1 0.5 0.5 0.022446
4 1 0.5 0.25 0.0615643
8 1 0.5 0.75 0.0615643
9 1 1 1 0.0748413
11 1 0.5 3.51154e-14 0.100039
13 1 1 0.5 0.0748413
15 1 0.5 0.5 0.100039
10 1 1 0.25 0.113184
12 1 0.5 0.25 0.138881
14 1 1 0.75 0.113184
16 1 0.5 0.75 0.138881
17 1 1 1 0.151887
21 1 1 0.5 0.151887
18 1 1.47122e-12 0.25 0.190566
19 1 0.5 5.60219e-15 0.177546
20 1 0.5 0.25 0.216214
22 1 1.47108e-12 0.75 0.190566
23 1 0.5 0.5 0.177546
24 1 0.5 0.75 0.216214
25 1 1 1.16538e-15 0.229295
26 1 1 0.25 0.268097
27 1 0.5 1.36224e-15 0.254842
29 1 4.12409e-14 0.5 0.229295
30 1 1 0.75 0.268097
31 1 0.5 0.5 0.254842
28 1 0.5 0.25 0.293423
32 1 0.5 0.75 0.293423
33 1 1 6.05439e-16 0.307087
37 1 1 0.5 0.307087
35 1 0.5 1 0.331953
39 1 0.5 0.5 0.331953
34 1 1.66118e-15 0.25 0.346599
36 1 0.5 0.25 0.369583
38 1 1.62584e-15 0.75 0.346599
40 1 0.5 0.75 0.369583
41 1 9.23124e-15 3.02719e-16 0.386374
45 1 9.2077e-15 0.5 0.386374
42 1 3.11442e-14 0.466667 0.426795
43 1 0.5 0.216667 0.410005
46 1 3.10152e-14 0.966667 0.426795
47 1 0.5 0.716667 0.410005
44 1 0.5 0.466667 0.44978
48 1 0.5 0.966667 0.44978
49 1 1 0.216667 0.464423
51 1 0.5 0.216667 0.489293
53 1 1 0.716667 0.464423
55 1 0.5 0.716667 0.489293
50 1 1 0.466667 0.50295
52 1 0.5 0.466667 0.528285
54 1 1 0.966667 0.50295
56 1 0.5 0.966667 0.528285
57 1 6.29841e-12 0.216667 0.541523
61 1 6.2987e-12 0.716667 0.541523
58 1 4.65126e-11 0.466667 0.580139
59 1 0.5 0.216667 0.567089
60 1 0.5 0.466667 0.605818
62 1 4.65126e-11 0.966667 0.580139
63 1 0.5 0.716667 0.567089
64 1 0.5 0.966667 0.605818
65 1 1 0.216667 0.618729
66 1 1 0.466667 0.65748
67 1 0.5 0.216667 0.644583
69 1 1 0.716667 0.618729
70 1 1 0.966667 0.65748
71 1 0.5 0.716667 0.644583
68 1 0.5 0.466667 0.682999
72 1 0.5 0.966667 0.682999
73 1 3.64639e-09 0.216667 0.695649
77 1 3.64639e-09 0.716667 0.695649
75 1 0.5 0.216667 0.723197
79 1 0.5 0.716667 0.723197
74 1 5.69983e-08 0.466667 0.733495
76 1 0.5 0.466667 0.759231
78 1 5.69983e-08 0.966667 0.733495
80 1 0.5 0.966667 0.759231
