ITEM: TIMESTEP
405
ITEM: NUMBER OF ATOMS
80
ITEM: BOX BOUNDS pp pp pp
0.0000000000000000e+00 4.6533240000000005e+00
0.0000000000000000e+00 5.8680000000000003e+00
0.0000000000000000e+00 6.5818347000000017e+01
ITEM: ATOMS id type xs ys zs
1 1 8.95674e-10 1.2528e-12 0
2 1 1.71514e-09 0.25 0.0353392
3 1 0.5 1 0.0225702
5 1 7.48574e-10 0.5 0
6 1 1.71514e-09 0.75 0.0353392
7 1 0.5 0.5 0.0225702
4 1 0.5 0.25 0.0617717
8 1 0.5 0.75 0.0617717
9 1 1 1 0.0751528
11 1 0.5 3.51154e-14 0.100375
13 1 1 0.5 0.0751528
15 1 0.5 0.5 0.100375
10 1 1 0.25 0.113655
12 1 0.5 0.25 0.139358
14 1 1 0.75 0.113655
16 1 0.5 0.75 0.139358
17 1 1 1 0.152501
21 1 1 0.5 0.152501
18 1 1.47122e-12 0.25 0.191305
19 1 0.5 5.60219e-15 0.178179
20 1 0.5 0.25 0.21701
22 1 1.47108e-12 0.75 0.191305
23 1 0.5 0.5 0.178179
24 1 0.5 0.75 0.21701
25 1 1 1.16538e-15 0.230124
26 1 1 0.25 0.268949
27 1 0.5 1.36224e-15 0.255833
29 1 4.12409e-14 0.5 0.230124
30 1 1 0.75 0.268949
31 1 0.5 0.5 0.255833
28 1 0.5 0.25 0.294648
32 1 0.5 0.75 0.294648
33 1 1 6.05439e-16 0.307768
37 1 1 0.5 0.307768
35 1 0.5 1 0.333472
39 1 0.5 0.5 0.333472
34 1 1.66118e-15 0.25 0.346669
36 1 0.5 0.25 0.372229
38 1 1.62584e-15 0.75 0.346669
40 1 0.5 0.75 0.372229
41 1 9.23124e-15 3.02719e-16 0.385249
45 1 9.2077e-15 0.5 0.385249
42 1 3.11442e-14 0.7 0.42431
43 1 0.5 0.45 0.41129
46 1 3.10152e-14 0.2 0.42431
47 1 0.5 0.95 0.41129
44 1 0.5 0.7 0.44987
48 1 0.5 0.2 0.44987
49 1 1 0.45 0.463064
51 1 0.5 0.45 0.488772
53 1 1 0.95 0.463064
55 1 0.5 0.95 0.488772
50 1 1 0.7 0.501886
52 1 0.5 0.7 0.527593
54 1 1 0.2 0.501886
56 1 0.5 0.2 0.527593
57 1 6.29841e-12 0.45 0.540694
61 1 6.2987e-12 0.95 0.540694
58 1 4.65126e-11 0.7 0.579508
59 1 0.5 0.45 0.566424
60 1 0.5 0.7 0.605242
62 1 4.65126e-11 0.2 0.579508
63 1 0.5 0.95 0.566424
64 1 0.5 0.2 0.605242
65 1 1 0.45 0.618261
66 1 1 0.7 0.657166
67 1 0.5 0.45 0.644145
69 1 1 0.95 0.618261
70 1 1 0.2 0.657166
71 1 0.5 0.95 0.644145
68 1 0.5 0.7 0.682689
72 1 0.5 0.2 0.682689
73 1 3.64639e-09 0.45 0.695476
77 1 3.64639e-09 0.95 0.695476
75 1 0.5 0.45 0.723095
79 1 0.5 0.95 0.723095
74 1 5.69983e-08 0.7 0.733495
76 1 0.5 0.7 0.759231
78 1 5.69983e-08 0.2 0.733495
80 1 0.5 0.2 0.759231
