ITEM: TIMESTEP
672
ITEM: NUMBER OF ATOMS
80
ITEM: BOX BOUNDS pp pp pp
0.0000000000000000e+00 5.6825487348095471e+00
0.0000000000000000e+00 7.1176886540000002e+00
0.0000000000000000e+00 7.6640963165803498e+01
ITEM: ATOMS id type xs ys zs
1 1 0 0 0
2 1 1 0.25 0.0298381
5 1 0 0.5 0
6 1 1 0.75 0.0298381
3 1 0.379583 3.54825e-05 0.174009
7 1 0.379583 0.499965 0.174009
4 1 0.371121 0.25 0.20457
8 1 0.371125 0.75 0.204567
9 1 0.872585 1.44325e-05 0.199042
13 1 0.872585 0.499986 0.199042
10 1 0.998558 0.25 0.233943
11 1 0.508938 0.999993 0.234696
14 1 0.998565 0.75 0.233941
15 1 0.508938 0.500007 0.234696
12 1 0.370932 0.25 0.26661
16 1 0.370928 0.75 0.26661
17 1 0.872594 0.999996 0.267031
18 1 0.00298213 0.25 0.299634
19 1 0.502471 3.95406e-07 0.299447
21 1 0.872594 0.500004 0.267031
22 1 0.00298131 0.75 0.299635
23 1 0.502471 0.5 0.299447
20 1 0.37193 0.25 0.33227
24 1 0.371931 0.75 0.33227
25 1 0.871633 1.23872e-06 0.332267
29 1 0.871633 0.499999 0.332267
26 1 0.00270522 0.25 0.364986
27 1 0.502693 2.29395e-07 0.365008
30 1 0.00270502 0.75 0.364986
31 1 0.502693 0.5 0.365008
28 1 0.371773 0.25 0.397728
32 1 0.371772 0.75 0.397728
33 1 0.871804 1 0.397723
37 1 0.871804 0.5 0.397723
34 1 0.00269307 0.25 0.43045
35 1 0.502702 1 0.430448
38 1 0.00269323 0.75 0.43045
39 1 0.502702 0.5 0.430448
36 1 0.3718 0.25 0.463369
40 1 0.3718 0.75 0.463369
41 1 0.871798 4.20845e-08 0.463369
45 1 0.871798 0.5 0.463369
42 1 0.00269917 0.516667 0.500351
43 1 0.502697 0.266667 0.500351
46 1 0.0026991 0.0166667 0.500351
47 1 0.502697 0.766667 0.500351
44 1 0.371776 0.516667 0.533271
48 1 0.371776 0.0166667 0.533271
49 1 0.871783 0.266667 0.53327
50 1 0.00267534 0.516667 0.565996
51 1 0.502698 0.266667 0.565992
53 1 0.871783 0.766667 0.53327
54 1 0.00267536 0.0166667 0.565996
55 1 0.502698 0.766667 0.565992
52 1 0.371784 0.516667 0.598714
56 1 0.371784 0.0166667 0.598714
57 1 0.871773 0.266667 0.598731
61 1 0.871773 0.766667 0.598731
58 1 0.00280372 0.516667 0.631451
59 1 0.502578 0.266667 0.63145
62 1 0.00280372 0.0166667 0.631451
63 1 0.502578 0.766667 0.63145
60 1 0.371965 0.516667 0.66425
64 1 0.371965 0.0166667 0.66425
65 1 0.87158 0.266667 0.664107
69 1 0.87158 0.766667 0.664107
66 1 0.00207867 0.516667 0.696745
67 1 0.503324 0.266667 0.697059
70 1 0.00207867 0.0166667 0.696745
71 1 0.503324 0.766667 0.697059
68 1 0.367415 0.516667 0.729186
72 1 0.367415 0.0166667 0.729186
73 1 0.875288 0.266667 0.72977
77 1 0.875288 0.766667 0.72977
74 1 0 0.516667 0.764068
75 1 0.501436 0.266667 0.759867
78 1 0 0.0166667 0.764068
79 1 0.501436 0.766667 0.759867
76 1 0.5 0.516667 0.790877
80 1 0.5 0.0166667 0.790877
