ITEM: TIMESTEP
197
ITEM: NUMBER OF ATOMS
80
ITEM: BOX BOUNDS pp pp pp
0.0000000000000000e+00 4.6533240000000005e+00
0.0000000000000000e+00 5.8680000000000003e+00
0.0000000000000000e+00 6.5818347000000017e+01
ITEM: ATOMS id type xs ys zs
1 1 8.95674e-10 1.2528e-12 0
2 1 1.71514e-09 0.25 0.0352305
3 1 0.5 1 0.022452
5 1 7.48574e-10 0.5 0
6 1 1.71514e-09 0.75 0.0352305
7 1 0.5 0.5 0.022452
4 1 0.5 0.25 0.0615742
8 1 0.5 0.75 0.0615742
9 1 1 1 0.074856
11 1 0.5 3.51154e-14 0.100055
13 1 1 0.5 0.074856
15 1 0.5 0.5 0.100055
10 1 1 0.25 0.113205
12 1 0.5 0.25 0.138903
14 1 1 0.75 0.113205
16 1 0.5 0.75 0.138903
17 1 1 1 0.151915
21 1 1 0.5 0.151915
18 1 1.47122e-12 0.25 0.190598
19 1 0.5 5.60219e-15 0.177575
20 1 0.5 0.25 0.216252
22 1 1.47108e-12 0.75 0.190598
23 1 0.5 0.5 0.177575
24 1 0.5 0.75 0.216252
25 1 1 1.16538e-15 0.229331
26 1 1 0.25 0.268128
27 1 0.5 1.36224e-15 0.25489
29 1 4.12409e-14 0.5 0.229331
30 1 1 0.75 0.268128
31 1 0.5 0.5 0.25489
28 1 0.5 0.25 0.293485
32 1 0.5 0.75 0.293485
33 1 1 6.05439e-16 0.307103
37 1 1 0.5 0.307103
35 1 0.5 1 0.332033
39 1 0.5 0.5 0.332033
34 1 1.66118e-15 0.25 0.346575
36 1 0.5 0.25 0.369721
38 1 1.62584e-15 0.75 0.346575
40 1 0.5 0.75 0.369721
41 1 9.23124e-15 3.02719e-16 0.386158
45 1 9.2077e-15 0.5 0.386158
42 1 3.11442e-14 0.45 0.426665
43 1 0.5 0.2 0.410229
46 1 3.10152e-14 0.95 0.426665
47 1 0.5 0.7 0.410229
44 1 0.5 0.45 0.449813
48 1 0.5 0.95 0.449813
49 1 1 0.2 0.464352
51 1 0.5 0.2 0.489286
53 1 1 0.7 0.464352
55 1 0.5 0.7 0.489286
50 1 1 0.45 0.502896
52 1 0.5 0.45 0.528261
54 1 1 0.95 0.502896
56 1 0.5 0.95 0.528261
57 1 6.29841e-12 0.2 0.541484
61 1 6.2987e-12 0.7 0.541484
58 1 4.65126e-11 0.45 0.58011
59 1 0.5 0.2 0.567062
60 1 0.5 0.45 0.605793
62 1 4.65126e-11 0.95 0.58011
63 1 0.5 0.7 0.567062
64 1 0.5 0.95 0.605793
65 1 1 0.2 0.618709
66 1 1 0.45 0.657466
67 1 0.5 0.2 0.644564
69 1 1 0.7 0.618709
70 1 1 0.95 0.657466
71 1 0.5 0.7 0.644564
68 1 0.5 0.45 0.682985
72 1 0.5 0.95 0.682985
73 1 3.64639e-09 0.2 0.695642
77 1 3.64639e-09 0.7 0.695642
75 1 0.5 0.2 0.723193
79 1 0.5 0.7 0.723193
74 1 5.69983e-08 0.45 0.733495
76 1 0.5 0.45 0.759231
78 1 5.69983e-08 0.95 0.733495
80 1 0.5 0.95 0.759231
