ITEM: TIMESTEP
25
ITEM: NUMBER OF ATOMS
80
ITEM: BOX BOUNDS pp pp pp
0.0000000000000000e+00 4.6533240000000005e+00
0.0000000000000000e+00 5.8680000000000003e+00
0.0000000000000000e+00 6.5818347000000017e+01
ITEM: ATOMS id type xs ys zs
1 1 8.95674e-10 1.2528e-12 0
2 1 1.71514e-09 0.25 0.0353398
3 1 0.5 1 0.0225708
5 1 7.48574e-10 0.5 0
6 1 1.71514e-09 0.75 0.0353398
7 1 0.5 0.5 0.0225708
4 1 0.5 0.25 0.0617729
8 1 0.5 0.75 0.0617729
9 1 1 1 0.0751552
11 1 0.5 3.51154e-14 0.100377
13 1 1 0.5 0.0751552
15 1 0.5 0.5 0.100377
10 1 1 0.25 0.113659
12 1 0.5 0.25 0.139362
14 1 1 0.75 0.113659
16 1 0.5 0.75 0.139362
17 1 1 1 0.152506
21 1 1 0.5 0.152506
18 1 1.47122e-12 0.25 0.191311
19 1 0.5 5.60219e-15 0.178185
20 1 0.5 0.25 0.217019
22 1 1.47108e-12 0.75 0.191311
23 1 0.5 0.5 0.178185
24 1 0.5 0.75 0.217019
25 1 1 1.16538e-15 0.230129
26 1 1 0.25 0.268948
27 1 0.5 1.36224e-15 0.255844
29 1 4.12409e-14 0.5 0.230129
30 1 1 0.75 0.268948
31 1 0.5 0.5 0.255844
28 1 0.5 0.25 0.294666
32 1 0.5 0.75 0.294666
33 1 1 6.05439e-16 0.307768
37 1 1 0.5 0.307768
34 1 1.66118e-15 0.25 0.346589
35 1 0.5 1 0.333488
36 1 0.5 0.25 0.372309
38 1 1.62584e-15 0.75 0.346589
39 1 0.5 0.5 0.333488
40 1 0.5 0.75 0.372309
41 1 9.23124e-15 3.02719e-16 0.38541
45 1 9.2077e-15 0.5 0.38541
42 1 3.11442e-14 0.25 0.424231
43 1 0.5 1 0.411131
46 1 3.10152e-14 0.75 0.424231
47 1 0.5 0.5 0.411131
44 1 0.5 0.25 0.449953
48 1 0.5 0.75 0.449953
49 1 1 1 0.463052
51 1 0.5 2.11904e-15 0.488775
53 1 1 0.5 0.463052
55 1 0.5 0.5 0.488775
50 1 1 0.25 0.501871
52 1 0.5 0.25 0.527597
54 1 1 0.75 0.501871
56 1 0.5 0.75 0.527597
57 1 6.29841e-12 1.36224e-15 0.540688
61 1 6.2987e-12 0.5 0.540688
58 1 4.65126e-11 0.25 0.579504
59 1 0.5 1 0.566423
60 1 0.5 0.25 0.60524
62 1 4.65126e-11 0.75 0.579504
63 1 0.5 0.5 0.566423
64 1 0.5 0.75 0.60524
65 1 1 1 0.618259
66 1 1 0.25 0.657164
67 1 0.5 1 0.644144
69 1 1 0.5 0.618259
70 1 1 0.75 0.657164
71 1 0.5 0.5 0.644144
68 1 0.5 0.25 0.682688
72 1 0.5 0.75 0.682688
73 1 3.64639e-09 2.99791e-16 0.695475
77 1 3.64639e-09 0.5 0.695475
75 1 0.5 1 0.723095
79 1 0.5 0.5 0.723095
74 1 5.69983e-08 0.25 0.733495
76 1 0.5 0.25 0.759231
78 1 5.69983e-08 0.75 0.733495
80 1 0.5 0.75 0.759231
