ITEM: TIMESTEP
394
ITEM: NUMBER OF ATOMS
80
ITEM: BOX BOUNDS pp pp pp
0.0000000000000000e+00 4.6533240000000005e+00
0.0000000000000000e+00 5.8680000000000003e+00
0.0000000000000000e+00 6.5818347000000017e+01
ITEM: ATOMS id type xs ys zs
1 1 8.95674e-10 1.2528e-12 0
2 1 1.71514e-09 0.25 0.0353336
3 1 0.5 1 0.0225638
5 1 7.48574e-10 0.5 0
6 1 1.71514e-09 0.75 0.0353336
7 1 0.5 0.5 0.0225638
4 1 0.5 0.25 0.0617614
8 1 0.5 0.75 0.0617614
9 1 1 1 0.0751378
11 1 0.5 3.51154e-14 0.100359
13 1 1 0.5 0.0751378
15 1 0.5 0.5 0.100359
10 1 1 0.25 0.113632
12 1 0.5 0.25 0.139336
14 1 1 0.75 0.113632
16 1 0.5 0.75 0.139336
17 1 1 1 0.152472
21 1 1 0.5 0.152472
18 1 1.47122e-12 0.25 0.19127
19 1 0.5 5.60219e-15 0.178149
20 1 0.5 0.25 0.216972
22 1 1.47108e-12 0.75 0.19127
23 1 0.5 0.5 0.178149
24 1 0.5 0.75 0.216972
25 1 1 1.16538e-15 0.230085
26 1 1 0.25 0.26891
27 1 0.5 1.36224e-15 0.255786
29 1 4.12409e-14 0.5 0.230085
30 1 1 0.75 0.26891
31 1 0.5 0.5 0.255786
28 1 0.5 0.25 0.294585
32 1 0.5 0.75 0.294585
33 1 1 6.05439e-16 0.307732
37 1 1 0.5 0.307732
35 1 0.5 1 0.333403
39 1 0.5 0.5 0.333403
34 1 1.66118e-15 0.25 0.346705
36 1 0.5 0.25 0.372067
38 1 1.62584e-15 0.75 0.346705
40 1 0.5 0.75 0.372067
41 1 9.23124e-15 3.02719e-16 0.385167
45 1 9.2077e-15 0.5 0.385167
42 1 3.11442e-14 0.683333 0.424471
43 1 0.5 0.433333 0.411371
46 1 3.10152e-14 0.183333 0.424471
47 1 0.5 0.933333 0.411371
44 1 0.5 0.683333 0.449834
48 1 0.5 0.183333 0.449834
49 1 1 0.433333 0.463134
51 1 0.5 0.433333 0.488808
53 1 1 0.933333 0.463134
55 1 0.5 0.933333 0.488808
50 1 1 0.683333 0.501949
52 1 0.5 0.683333 0.527632
54 1 1 0.183333 0.501949
56 1 0.5 0.183333 0.527632
57 1 6.29841e-12 0.433333 0.540741
61 1 6.2987e-12 0.933333 0.540741
58 1 4.65126e-11 0.683333 0.579545
59 1 0.5 0.433333 0.566463
60 1 0.5 0.683333 0.605276
62 1 4.65126e-11 0.183333 0.579545
63 1 0.5 0.933333 0.566463
64 1 0.5 0.183333 0.605276
65 1 1 0.433333 0.618289
66 1 1 0.683333 0.657184
67 1 0.5 0.433333 0.644171
69 1 1 0.933333 0.618289
70 1 1 0.183333 0.657184
71 1 0.5 0.933333 0.644171
68 1 0.5 0.683333 0.682707
72 1 0.5 0.183333 0.682707
73 1 3.64639e-09 0.433333 0.695486
77 1 3.64639e-09 0.933333 0.695486
75 1 0.5 0.433333 0.723102
79 1 0.5 0.933333 0.723102
74 1 5.69983e-08 0.683333 0.733495
76 1 0.5 0.683333 0.759231
78 1 5.69983e-08 0.183333 0.733495
80 1 0.5 0.183333 0.759231
