ITEM: TIMESTEP
386
ITEM: NUMBER OF ATOMS
80
ITEM: BOX BOUNDS pp pp pp
0.0000000000000000e+00 5.6825487348095471e+00
0.0000000000000000e+00 7.1176886540000002e+00
0.0000000000000000e+00 7.6640963165803498e+01
ITEM: ATOMS id type xs ys zs
1 1 0 0 0
2 1 1 0.25 0.0298381
5 1 0 0.5 0
6 1 1 0.75 0.0298381
3 1 0.379583 3.54825e-05 0.178209
7 1 0.379583 0.499965 0.178209
4 1 0.371121 0.25 0.208769
8 1 0.371125 0.75 0.208766
9 1 0.872585 1.44325e-05 0.203241
13 1 0.872585 0.499986 0.203241
10 1 0.998558 0.25 0.238141
11 1 0.508938 0.999993 0.238895
14 1 0.998565 0.75 0.23814
15 1 0.508938 0.500007 0.238895
12 1 0.370932 0.25 0.270808
16 1 0.370928 0.75 0.270808
17 1 0.872594 0.999996 0.271229
18 1 0.00298213 0.25 0.303832
19 1 0.502471 3.95406e-07 0.303645
21 1 0.872594 0.500004 0.271229
22 1 0.00298131 0.75 0.303832
23 1 0.502471 0.5 0.303645
20 1 0.37193 0.25 0.336467
24 1 0.371931 0.75 0.336467
25 1 0.871633 1.23872e-06 0.336464
29 1 0.871633 0.499999 0.336464
26 1 0.00270522 0.25 0.369183
27 1 0.502693 2.29395e-07 0.369205
28 1 0.371773 0.25 0.401925
30 1 0.00270502 0.75 0.369183
31 1 0.502693 0.5 0.369205
32 1 0.371772 0.75 0.401925
33 1 0.871804 1 0.40192
37 1 0.871804 0.5 0.40192
34 1 0.00269307 0.25 0.434652
35 1 0.502702 1 0.434651
38 1 0.00269323 0.75 0.434652
39 1 0.502702 0.5 0.434651
36 1 0.3718 0.25 0.467324
40 1 0.3718 0.75 0.467324
41 1 0.871798 4.20845e-08 0.467325
45 1 0.871798 0.5 0.467325
42 1 0.00269917 0.316667 0.500592
43 1 0.502697 0.0666667 0.500592
46 1 0.0026991 0.816667 0.500592
47 1 0.502697 0.566667 0.500592
44 1 0.371776 0.316667 0.533265
48 1 0.371776 0.816667 0.533265
49 1 0.871783 0.0666667 0.533264
50 1 0.00267534 0.316667 0.565995
51 1 0.502698 0.0666667 0.565991
53 1 0.871783 0.566667 0.533264
54 1 0.00267536 0.816667 0.565995
55 1 0.502698 0.566667 0.565991
52 1 0.371784 0.316667 0.598713
56 1 0.371784 0.816667 0.598713
57 1 0.871773 0.0666667 0.59873
61 1 0.871773 0.566667 0.59873
58 1 0.00280372 0.316667 0.63145
59 1 0.502578 0.0666667 0.631449
62 1 0.00280372 0.816667 0.63145
63 1 0.502578 0.566667 0.631449
60 1 0.371965 0.316667 0.664249
64 1 0.371965 0.816667 0.664249
65 1 0.87158 0.0666667 0.664106
69 1 0.87158 0.566667 0.664106
66 1 0.00207867 0.316667 0.696745
67 1 0.503324 0.0666667 0.697059
70 1 0.00207867 0.816667 0.696745
71 1 0.503324 0.566667 0.697059
68 1 0.367415 0.316667 0.729186
72 1 0.367415 0.816667 0.729186
73 1 0.875288 0.0666667 0.72977
77 1 0.875288 0.566667 0.72977
74 1 0 0.316667 0.764068
75 1 0.501436 0.0666667 0.759866
78 1 0 0.816667 0.764068
79 1 0.501436 0.566667 0.759866
76 1 0.5 0.316667 0.790877
80 1 0.5 0.816667 0.790877
