ITEM: TIMESTEP
45
ITEM: NUMBER OF ATOMS
80
ITEM: BOX BOUNDS pp pp pp
0.0000000000000000e+00 4.6533240000000005e+00
0.0000000000000000e+00 5.8680000000000003e+00
0.0000000000000000e+00 6.5818347000000017e+01
ITEM: ATOMS id type xs ys zs
1 1 8.95674e-10 1.2528e-12 0
2 1 1.71514e-09 0.25 0.0353399
3 1 0.5 1 0.0225712
5 1 7.48574e-10 0.5 0
6 1 1.71514e-09 0.75 0.0353399
7 1 0.5 0.5 0.0225712
4 1 0.5 0.25 0.0617731
8 1 0.5 0.75 0.0617731
9 1 1 1 0.075155
11 1 0.5 3.51154e-14 0.100377
13 1 1 0.5 0.075155
15 1 0.5 0.5 0.100377
10 1 1 0.25 0.113658
12 1 0.5 0.25 0.139362
14 1 1 0.75 0.113658
16 1 0.5 0.75 0.139362
17 1 1 1 0.152505
21 1 1 0.5 0.152505
18 1 1.47122e-12 0.25 0.191309
19 1 0.5 5.60219e-15 0.178183
20 1 0.5 0.25 0.217015
22 1 1.47108e-12 0.75 0.191309
23 1 0.5 0.5 0.178183
24 1 0.5 0.75 0.217015
25 1 1 1.16538e-15 0.230129
26 1 1 0.25 0.268953
27 1 0.5 1.36224e-15 0.255838
29 1 4.12409e-14 0.5 0.230129
30 1 1 0.75 0.268953
31 1 0.5 0.5 0.255838
28 1 0.5 0.25 0.294653
32 1 0.5 0.75 0.294653
33 1 1 6.05439e-16 0.307772
37 1 1 0.5 0.307772
34 1 1.66118e-15 0.25 0.346673
35 1 0.5 1 0.333477
36 1 0.5 0.25 0.372232
38 1 1.62584e-15 0.75 0.346673
39 1 0.5 0.5 0.333477
40 1 0.5 0.75 0.372232
41 1 9.23124e-15 3.02719e-16 0.385253
45 1 9.2077e-15 0.5 0.385253
42 1 3.11442e-14 0.3 0.424313
43 1 0.5 0.05 0.411294
46 1 3.10152e-14 0.8 0.424313
47 1 0.5 0.55 0.411294
44 1 0.5 0.3 0.449874
48 1 0.5 0.8 0.449874
49 1 1 0.05 0.463068
51 1 0.5 0.05 0.488776
53 1 1 0.55 0.463068
55 1 0.5 0.55 0.488776
50 1 1 0.3 0.501889
52 1 0.5 0.3 0.527597
54 1 1 0.8 0.501889
56 1 0.5 0.8 0.527597
57 1 6.29841e-12 0.05 0.540698
61 1 6.2987e-12 0.55 0.540698
58 1 4.65126e-11 0.3 0.579512
59 1 0.5 0.05 0.566428
60 1 0.5 0.3 0.605245
62 1 4.65126e-11 0.8 0.579512
63 1 0.5 0.55 0.566428
64 1 0.5 0.8 0.605245
65 1 1 0.05 0.618264
66 1 1 0.3 0.657168
67 1 0.5 0.05 0.644148
69 1 1 0.55 0.618264
70 1 1 0.8 0.657168
71 1 0.5 0.55 0.644148
68 1 0.5 0.3 0.682691
72 1 0.5 0.8 0.682691
73 1 3.64639e-09 0.05 0.695477
77 1 3.64639e-09 0.55 0.695477
75 1 0.5 0.05 0.723096
79 1 0.5 0.55 0.723096
74 1 5.69983e-08 0.3 0.733495
76 1 0.5 0.3 0.759231
78 1 5.69983e-08 0.8 0.733495
80 1 0.5 0.8 0.759231
