ITEM: TIMESTEP
818
ITEM: NUMBER OF ATOMS
80
ITEM: BOX BOUNDS pp pp pp
0.0000000000000000e+00 5.6825487348095471e+00
0.0000000000000000e+00 7.1176886540000002e+00
0.0000000000000000e+00 7.6640963165803498e+01
ITEM: ATOMS id type xs ys zs
1 1 0 0 0
2 1 1 0.25 0.0298381
5 1 0 0.5 0
6 1 1 0.75 0.0298381
3 1 0.379583 3.54825e-05 0.175812
7 1 0.379583 0.499965 0.175812
4 1 0.371121 0.25 0.206372
8 1 0.371125 0.75 0.206369
9 1 0.872585 1.44325e-05 0.200843
13 1 0.872585 0.499986 0.200843
10 1 0.998558 0.25 0.235744
11 1 0.508938 0.999993 0.236497
14 1 0.998565 0.75 0.235742
15 1 0.508938 0.500007 0.236497
12 1 0.370932 0.25 0.26841
16 1 0.370928 0.75 0.26841
17 1 0.872594 0.999996 0.268831
18 1 0.00298213 0.25 0.301433
19 1 0.502471 3.95406e-07 0.301246
21 1 0.872594 0.500004 0.268831
22 1 0.00298131 0.75 0.301434
23 1 0.502471 0.5 0.301246
20 1 0.37193 0.25 0.334068
24 1 0.371931 0.75 0.334068
25 1 0.871633 1.23872e-06 0.334065
29 1 0.871633 0.499999 0.334065
26 1 0.00270522 0.25 0.366783
27 1 0.502693 2.29395e-07 0.366805
30 1 0.00270502 0.75 0.366783
31 1 0.502693 0.5 0.366805
28 1 0.371773 0.25 0.399525
32 1 0.371772 0.75 0.399525
33 1 0.871804 1 0.39952
37 1 0.871804 0.5 0.39952
34 1 0.00269307 0.25 0.432248
35 1 0.502702 1 0.432247
38 1 0.00269323 0.75 0.432248
39 1 0.502702 0.5 0.432247
36 1 0.3718 0.25 0.46513
40 1 0.3718 0.75 0.46513
41 1 0.871798 4.20845e-08 0.465131
45 1 0.871798 0.5 0.465131
42 1 0.00269917 0.616667 0.500384
43 1 0.502697 0.366667 0.500384
46 1 0.0026991 0.116667 0.500384
47 1 0.502697 0.866667 0.500384
44 1 0.371776 0.616667 0.533268
48 1 0.371776 0.116667 0.533268
49 1 0.871783 0.366667 0.533266
50 1 0.00267534 0.616667 0.565994
51 1 0.502698 0.366667 0.56599
53 1 0.871783 0.866667 0.533266
54 1 0.00267536 0.116667 0.565994
55 1 0.502698 0.866667 0.56599
52 1 0.371784 0.616667 0.598712
56 1 0.371784 0.116667 0.598712
57 1 0.871773 0.366667 0.598729
61 1 0.871773 0.866667 0.598729
58 1 0.00280372 0.616667 0.63145
59 1 0.502578 0.366667 0.631449
62 1 0.00280372 0.116667 0.63145
63 1 0.502578 0.866667 0.631449
60 1 0.371965 0.616667 0.664248
64 1 0.371965 0.116667 0.664248
65 1 0.87158 0.366667 0.664106
69 1 0.87158 0.866667 0.664106
66 1 0.00207867 0.616667 0.696744
67 1 0.503324 0.366667 0.697058
70 1 0.00207867 0.116667 0.696744
71 1 0.503324 0.866667 0.697058
68 1 0.367415 0.616667 0.729186
72 1 0.367415 0.116667 0.729186
73 1 0.875288 0.366667 0.72977
77 1 0.875288 0.866667 0.72977
74 1 0 0.616667 0.764068
75 1 0.501436 0.366667 0.759866
78 1 0 0.116667 0.764068
79 1 0.501436 0.866667 0.759866
76 1 0.5 0.616667 0.790877
80 1 0.5 0.116667 0.790877
