ITEM: TIMESTEP
322
ITEM: NUMBER OF ATOMS
80
ITEM: BOX BOUNDS pp pp pp
0.0000000000000000e+00 4.6533240000000005e+00
0.0000000000000000e+00 5.8680000000000003e+00
0.0000000000000000e+00 6.5818347000000017e+01
ITEM: ATOMS id type xs ys zs
1 1 8.95674e-10 1.2528e-12 0
2 1 1.71514e-09 0.25 0.035277
3 1 0.5 1 0.0225019
5 1 7.48574e-10 0.5 0
6 1 1.71514e-09 0.75 0.035277
7 1 0.5 0.5 0.0225019
4 1 0.5 0.25 0.061659
8 1 0.5 0.75 0.061659
9 1 1 1 0.074982
11 1 0.5 3.51154e-14 0.100192
13 1 1 0.5 0.074982
15 1 0.5 0.5 0.100192
10 1 1 0.25 0.113396
12 1 0.5 0.25 0.139099
14 1 1 0.75 0.113396
16 1 0.5 0.75 0.139099
17 1 1 1 0.152164
21 1 1 0.5 0.152164
18 1 1.47122e-12 0.25 0.190895
19 1 0.5 5.60219e-15 0.177834
20 1 0.5 0.25 0.216578
22 1 1.47108e-12 0.75 0.190895
23 1 0.5 0.5 0.177834
24 1 0.5 0.75 0.216578
25 1 1 1.16538e-15 0.229659
26 1 1 0.25 0.268459
27 1 0.5 1.36224e-15 0.2553
29 1 4.12409e-14 0.5 0.229659
30 1 1 0.75 0.268459
31 1 0.5 0.5 0.2553
28 1 0.5 0.25 0.293988
32 1 0.5 0.75 0.293988
33 1 1 6.05439e-16 0.307321
37 1 1 0.5 0.307321
35 1 0.5 1 0.3327
39 1 0.5 0.5 0.3327
34 1 1.66118e-15 0.25 0.346588
36 1 0.5 0.25 0.370783
38 1 1.62584e-15 0.75 0.346588
40 1 0.5 0.75 0.370783
41 1 9.23124e-15 3.02719e-16 0.385062
45 1 9.2077e-15 0.5 0.385062
42 1 3.11442e-14 0.616667 0.425651
43 1 0.5 0.366667 0.411372
46 1 3.10152e-14 0.116667 0.425651
47 1 0.5 0.866667 0.411372
44 1 0.5 0.616667 0.449847
48 1 0.5 0.116667 0.449847
49 1 1 0.366667 0.463734
51 1 0.5 0.366667 0.489115
53 1 1 0.866667 0.463734
55 1 0.5 0.866667 0.489115
50 1 1 0.616667 0.502444
52 1 0.5 0.616667 0.527982
54 1 1 0.116667 0.502444
56 1 0.5 0.116667 0.527982
57 1 6.29841e-12 0.366667 0.541127
61 1 6.2987e-12 0.866667 0.541127
58 1 4.65126e-11 0.616667 0.579842
59 1 0.5 0.366667 0.566789
60 1 0.5 0.616667 0.605554
62 1 4.65126e-11 0.116667 0.579842
63 1 0.5 0.866667 0.566789
64 1 0.5 0.116667 0.605554
65 1 1 0.366667 0.61851
66 1 1 0.616667 0.657333
67 1 0.5 0.366667 0.644382
69 1 1 0.866667 0.61851
70 1 1 0.116667 0.657333
71 1 0.5 0.866667 0.644382
68 1 0.5 0.616667 0.682856
72 1 0.5 0.116667 0.682856
73 1 3.64639e-09 0.366667 0.695569
77 1 3.64639e-09 0.866667 0.695569
75 1 0.5 0.366667 0.72315
79 1 0.5 0.866667 0.72315
74 1 5.69983e-08 0.616667 0.733495
76 1 0.5 0.616667 0.759231
78 1 5.69983e-08 0.116667 0.733495
80 1 0.5 0.116667 0.759231
