ITEM: TIMESTEP
219
ITEM: NUMBER OF ATOMS
80
ITEM: BOX BOUNDS pp pp pp
0.0000000000000000e+00 4.6533240000000005e+00
0.0000000000000000e+00 5.8680000000000003e+00
0.0000000000000000e+00 6.5818347000000017e+01
ITEM: ATOMS id type xs ys zs
1 1 8.95674e-10 1.2528e-12 0
2 1 1.71514e-09 0.25 0.035225
3 1 0.5 1 0.0224465
5 1 7.48574e-10 0.5 0
6 1 1.71514e-09 0.75 0.035225
7 1 0.5 0.5 0.0224465
4 1 0.5 0.25 0.0615642
8 1 0.5 0.75 0.0615642
9 1 1 1 0.0748409
11 1 0.5 3.51154e-14 0.100038
13 1 1 0.5 0.0748409
15 1 0.5 0.5 0.100038
10 1 1 0.25 0.113182
12 1 0.5 0.25 0.138879
14 1 1 0.75 0.113182
16 1 0.5 0.75 0.138879
17 1 1 1 0.151885
21 1 1 0.5 0.151885
18 1 1.47122e-12 0.25 0.190563
19 1 0.5 5.60219e-15 0.177541
20 1 0.5 0.25 0.216208
22 1 1.47108e-12 0.75 0.190563
23 1 0.5 0.5 0.177541
24 1 0.5 0.75 0.216208
25 1 1 1.16538e-15 0.229295
26 1 1 0.25 0.268103
27 1 0.5 1.36224e-15 0.254832
29 1 4.12409e-14 0.5 0.229295
30 1 1 0.75 0.268103
31 1 0.5 0.5 0.254832
28 1 0.5 0.25 0.293404
32 1 0.5 0.75 0.293404
33 1 1 6.05439e-16 0.307109
37 1 1 0.5 0.307109
35 1 0.5 1 0.331928
39 1 0.5 0.5 0.331928
34 1 1.66118e-15 0.25 0.346657
36 1 0.5 0.25 0.369495
38 1 1.62584e-15 0.75 0.346657
40 1 0.5 0.75 0.369495
41 1 9.23124e-15 3.02719e-16 0.38661
45 1 9.2077e-15 0.5 0.38661
42 1 3.11442e-14 0.483333 0.42688
43 1 0.5 0.233333 0.409766
46 1 3.10152e-14 0.983333 0.42688
47 1 0.5 0.733333 0.409766
44 1 0.5 0.483333 0.449718
48 1 0.5 0.983333 0.449718
49 1 1 0.233333 0.464446
51 1 0.5 0.233333 0.489268
53 1 1 0.733333 0.464446
55 1 0.5 0.733333 0.489268
50 1 1 0.483333 0.502967
52 1 0.5 0.483333 0.528275
54 1 1 0.983333 0.502967
56 1 0.5 0.983333 0.528275
57 1 6.29841e-12 0.233333 0.541531
61 1 6.2987e-12 0.733333 0.541531
58 1 4.65126e-11 0.483333 0.580145
59 1 0.5 0.233333 0.567088
60 1 0.5 0.483333 0.605819
62 1 4.65126e-11 0.983333 0.580145
63 1 0.5 0.733333 0.567088
64 1 0.5 0.983333 0.605819
65 1 1 0.233333 0.618734
66 1 1 0.483333 0.657483
67 1 0.5 0.233333 0.644585
69 1 1 0.733333 0.618734
70 1 1 0.983333 0.657483
71 1 0.5 0.733333 0.644585
68 1 0.5 0.483333 0.683001
72 1 0.5 0.983333 0.683001
73 1 3.64639e-09 0.233333 0.695651
77 1 3.64639e-09 0.733333 0.695651
75 1 0.5 0.233333 0.723198
79 1 0.5 0.733333 0.723198
74 1 5.69983e-08 0.483333 0.733495
76 1 0.5 0.483333 0.759231
78 1 5.69983e-08 0.983333 0.733495
80 1 0.5 0.983333 0.759231
