ITEM: TIMESTEP
36
ITEM: NUMBER OF ATOMS
80
ITEM: BOX BOUNDS pp pp pp
0.0000000000000000e+00 4.6533240000000005e+00
0.0000000000000000e+00 5.8680000000000003e+00
0.0000000000000000e+00 6.5818347000000017e+01
ITEM: ATOMS id type xs ys zs
1 1 8.95674e-10 1.2528e-12 0
2 1 1.71514e-09 0.25 0.0353406
3 1 0.5 1 0.0225716
5 1 7.48574e-10 0.5 0
6 1 1.71514e-09 0.75 0.0353406
7 1 0.5 0.5 0.0225716
4 1 0.5 0.25 0.0617743
8 1 0.5 0.75 0.0617743
9 1 1 1 0.0751572
11 1 0.5 3.51154e-14 0.100379
13 1 1 0.5 0.0751572
15 1 0.5 0.5 0.100379
10 1 1 0.25 0.113661
12 1 0.5 0.25 0.139365
14 1 1 0.75 0.113661
16 1 0.5 0.75 0.139365
17 1 1 1 0.15251
21 1 1 0.5 0.15251
18 1 1.47122e-12 0.25 0.191315
19 1 0.5 5.60219e-15 0.178188
20 1 0.5 0.25 0.217022
22 1 1.47108e-12 0.75 0.191315
23 1 0.5 0.5 0.178188
24 1 0.5 0.75 0.217022
25 1 1 1.16538e-15 0.230134
26 1 1 0.25 0.268956
27 1 0.5 1.36224e-15 0.255849
29 1 4.12409e-14 0.5 0.230134
30 1 1 0.75 0.268956
31 1 0.5 0.5 0.255849
28 1 0.5 0.25 0.29467
32 1 0.5 0.75 0.29467
33 1 1 6.05439e-16 0.307774
37 1 1 0.5 0.307774
34 1 1.66118e-15 0.25 0.346624
35 1 0.5 1 0.333494
36 1 0.5 0.25 0.3723
38 1 1.62584e-15 0.75 0.346624
39 1 0.5 0.5 0.333494
40 1 0.5 0.75 0.3723
41 1 9.23124e-15 3.02719e-16 0.38532
45 1 9.2077e-15 0.5 0.38532
42 1 3.11442e-14 0.283333 0.424244
43 1 0.5 0.0333333 0.411225
46 1 3.10152e-14 0.783333 0.424244
47 1 0.5 0.533333 0.411225
44 1 0.5 0.283333 0.449921
48 1 0.5 0.783333 0.449921
49 1 1 0.0333333 0.463048
51 1 0.5 0.0333333 0.488772
53 1 1 0.533333 0.463048
55 1 0.5 0.533333 0.488772
50 1 1 0.283333 0.50187
52 1 0.5 0.283333 0.527592
54 1 1 0.783333 0.50187
56 1 0.5 0.783333 0.527592
57 1 6.29841e-12 0.0333333 0.540685
61 1 6.2987e-12 0.533333 0.540685
58 1 4.65126e-11 0.283333 0.579502
59 1 0.5 0.0333333 0.56642
60 1 0.5 0.283333 0.605238
62 1 4.65126e-11 0.783333 0.579502
63 1 0.5 0.533333 0.56642
64 1 0.5 0.783333 0.605238
65 1 1 0.0333333 0.618257
66 1 1 0.283333 0.657163
67 1 0.5 0.0333333 0.644142
69 1 1 0.533333 0.618257
70 1 1 0.783333 0.657163
71 1 0.5 0.533333 0.644142
68 1 0.5 0.283333 0.682686
72 1 0.5 0.783333 0.682686
73 1 3.64639e-09 0.0333333 0.695474
77 1 3.64639e-09 0.533333 0.695474
75 1 0.5 0.0333333 0.723095
79 1 0.5 0.533333 0.723095
74 1 5.69983e-08 0.283333 0.733495
76 1 0.5 0.283333 0.759231
78 1 5.69983e-08 0.783333 0.733495
80 1 0.5 0.783333 0.759231
