ITEM: TIMESTEP
445
ITEM: NUMBER OF ATOMS
80
ITEM: BOX BOUNDS pp pp pp
0.0000000000000000e+00 5.6825487348095471e+00
0.0000000000000000e+00 7.1176886540000002e+00
0.0000000000000000e+00 7.6640963165803498e+01
ITEM: ATOMS id type xs ys zs
1 1 0 0 0
2 1 1 0.25 0.0298381
5 1 0 0.5 0
6 1 1 0.75 0.0298381
3 1 0.379583 3.54825e-05 0.177154
7 1 0.379583 0.499965 0.177154
4 1 0.371121 0.25 0.207714
8 1 0.371125 0.75 0.207711
9 1 0.872585 1.44325e-05 0.202186
13 1 0.872585 0.499986 0.202186
10 1 0.998558 0.25 0.237087
11 1 0.508938 0.999993 0.23784
14 1 0.998565 0.75 0.237085
15 1 0.508938 0.500007 0.23784
12 1 0.370932 0.25 0.269753
16 1 0.370928 0.75 0.269754
17 1 0.872594 0.999996 0.270175
18 1 0.00298213 0.25 0.302777
19 1 0.502471 3.95406e-07 0.30259
21 1 0.872594 0.500004 0.270175
22 1 0.00298131 0.75 0.302778
23 1 0.502471 0.5 0.30259
20 1 0.37193 0.25 0.335412
24 1 0.371931 0.75 0.335412
25 1 0.871633 1.23872e-06 0.33541
29 1 0.871633 0.499999 0.33541
26 1 0.00270522 0.25 0.368128
27 1 0.502693 2.29395e-07 0.36815
28 1 0.371773 0.25 0.40087
30 1 0.00270502 0.75 0.368128
31 1 0.502693 0.5 0.36815
32 1 0.371772 0.75 0.40087
33 1 0.871804 1 0.400865
37 1 0.871804 0.5 0.400865
34 1 0.00269307 0.25 0.433596
35 1 0.502702 1 0.433594
38 1 0.00269323 0.75 0.433596
39 1 0.502702 0.5 0.433594
36 1 0.3718 0.25 0.466353
40 1 0.3718 0.75 0.466353
41 1 0.871798 4.20845e-08 0.466354
45 1 0.871798 0.5 0.466354
42 1 0.00269917 0.35 0.500508
43 1 0.502697 0.1 0.500508
46 1 0.0026991 0.85 0.500508
47 1 0.502697 0.6 0.500508
44 1 0.371776 0.35 0.533266
48 1 0.371776 0.85 0.533266
49 1 0.871783 0.1 0.533266
50 1 0.00267534 0.35 0.565996
51 1 0.502698 0.1 0.565992
53 1 0.871783 0.6 0.533266
54 1 0.00267536 0.85 0.565996
55 1 0.502698 0.6 0.565992
52 1 0.371784 0.35 0.598714
56 1 0.371784 0.85 0.598714
57 1 0.871773 0.1 0.59873
61 1 0.871773 0.6 0.59873
58 1 0.00280372 0.35 0.631451
59 1 0.502578 0.1 0.63145
62 1 0.00280372 0.85 0.631451
63 1 0.502578 0.6 0.63145
60 1 0.371965 0.35 0.664249
64 1 0.371965 0.85 0.664249
65 1 0.87158 0.1 0.664107
69 1 0.87158 0.6 0.664107
66 1 0.00207867 0.35 0.696745
67 1 0.503324 0.1 0.697059
70 1 0.00207867 0.85 0.696745
71 1 0.503324 0.6 0.697059
68 1 0.367415 0.35 0.729186
72 1 0.367415 0.85 0.729186
73 1 0.875288 0.1 0.72977
77 1 0.875288 0.6 0.72977
74 1 0 0.35 0.764068
75 1 0.501436 0.1 0.759866
78 1 0 0.85 0.764068
79 1 0.501436 0.6 0.759866
76 1 0.5 0.35 0.790877
80 1 0.5 0.85 0.790877
