ITEM: TIMESTEP
288
ITEM: NUMBER OF ATOMS
80
ITEM: BOX BOUNDS pp pp pp
0.0000000000000000e+00 4.6533240000000005e+00
0.0000000000000000e+00 5.8680000000000003e+00
0.0000000000000000e+00 6.5818347000000017e+01
ITEM: ATOMS id type xs ys zs
1 1 8.95674e-10 1.2528e-12 0
2 1 1.71514e-09 0.25 0.0352552
3 1 0.5 1 0.0224785
5 1 7.48574e-10 0.5 0
6 1 1.71514e-09 0.75 0.0352552
7 1 0.5 0.5 0.0224785
4 1 0.5 0.25 0.061619
8 1 0.5 0.75 0.061619
9 1 1 1 0.0749224
11 1 0.5 3.51154e-14 0.100127
13 1 1 0.5 0.0749224
15 1 0.5 0.5 0.100127
10 1 1 0.25 0.113305
12 1 0.5 0.25 0.139006
14 1 1 0.75 0.113305
16 1 0.5 0.75 0.139006
17 1 1 1 0.152046
21 1 1 0.5 0.152046
18 1 1.47122e-12 0.25 0.190754
19 1 0.5 5.60219e-15 0.177711
20 1 0.5 0.25 0.216424
22 1 1.47108e-12 0.75 0.190754
23 1 0.5 0.5 0.177711
24 1 0.5 0.75 0.216424
25 1 1 1.16538e-15 0.229504
26 1 1 0.25 0.268302
27 1 0.5 1.36224e-15 0.255106
29 1 4.12409e-14 0.5 0.229504
30 1 1 0.75 0.268302
31 1 0.5 0.5 0.255106
28 1 0.5 0.25 0.29375
32 1 0.5 0.75 0.29375
33 1 1 6.05439e-16 0.307215
37 1 1 0.5 0.307215
35 1 0.5 1 0.332389
39 1 0.5 0.5 0.332389
34 1 1.66118e-15 0.25 0.346589
36 1 0.5 0.25 0.370235
38 1 1.62584e-15 0.75 0.346589
40 1 0.5 0.75 0.370235
41 1 9.23124e-15 3.02719e-16 0.385491
45 1 9.2077e-15 0.5 0.385491
42 1 3.11442e-14 0.583333 0.426177
43 1 0.5 0.333333 0.410921
46 1 3.10152e-14 0.0833333 0.426177
47 1 0.5 0.833333 0.410921
44 1 0.5 0.583333 0.449824
48 1 0.5 0.0833333 0.449824
49 1 1 0.333333 0.464021
51 1 0.5 0.333333 0.489199
53 1 1 0.833333 0.464021
55 1 0.5 0.833333 0.489199
50 1 1 0.583333 0.502659
52 1 0.5 0.583333 0.528115
54 1 1 0.0833333 0.502659
56 1 0.5 0.0833333 0.528115
57 1 6.29841e-12 0.333333 0.541296
61 1 6.2987e-12 0.833333 0.541296
58 1 4.65126e-11 0.583333 0.579969
59 1 0.5 0.333333 0.566919
60 1 0.5 0.583333 0.605668
62 1 4.65126e-11 0.0833333 0.579969
63 1 0.5 0.833333 0.566919
64 1 0.5 0.0833333 0.605668
65 1 1 0.333333 0.618604
66 1 1 0.583333 0.657396
67 1 0.5 0.333333 0.644468
69 1 1 0.833333 0.618604
70 1 1 0.0833333 0.657396
71 1 0.5 0.833333 0.644468
68 1 0.5 0.583333 0.682918
72 1 0.5 0.0833333 0.682918
73 1 3.64639e-09 0.333333 0.695603
77 1 3.64639e-09 0.833333 0.695603
75 1 0.5 0.333333 0.72317
79 1 0.5 0.833333 0.72317
74 1 5.69983e-08 0.583333 0.733495
76 1 0.5 0.583333 0.759231
78 1 5.69983e-08 0.0833333 0.733495
80 1 0.5 0.0833333 0.759231
