ITEM: TIMESTEP
128
ITEM: NUMBER OF ATOMS
80
ITEM: BOX BOUNDS pp pp pp
0.0000000000000000e+00 4.6533240000000005e+00
0.0000000000000000e+00 5.8680000000000003e+00
0.0000000000000000e+00 6.5818347000000017e+01
ITEM: ATOMS id type xs ys zs
1 1 8.95674e-10 1.2528e-12 0
2 1 1.71514e-09 0.25 0.0352778
3 1 0.5 1 0.0225027
5 1 7.48574e-10 0.5 0
6 1 1.71514e-09 0.75 0.0352778
7 1 0.5 0.5 0.0225027
4 1 0.5 0.25 0.0616601
8 1 0.5 0.75 0.0616601
9 1 1 1 0.0749841
11 1 0.5 3.51154e-14 0.100194
13 1 1 0.5 0.0749841
15 1 0.5 0.5 0.100194
10 1 1 0.25 0.113399
12 1 0.5 0.25 0.139102
14 1 1 0.75 0.113399
16 1 0.5 0.75 0.139102
17 1 1 1 0.152168
21 1 1 0.5 0.152168
18 1 1.47122e-12 0.25 0.1909
19 1 0.5 5.60219e-15 0.177838
20 1 0.5 0.25 0.216583
22 1 1.47108e-12 0.75 0.1909
23 1 0.5 0.5 0.177838
24 1 0.5 0.75 0.216583
25 1 1 1.16538e-15 0.229665
26 1 1 0.25 0.268466
27 1 0.5 1.36224e-15 0.255306
29 1 4.12409e-14 0.5 0.229665
30 1 1 0.75 0.268466
31 1 0.5 0.5 0.255306
28 1 0.5 0.25 0.293995
32 1 0.5 0.75 0.293995
33 1 1 6.05439e-16 0.307329
37 1 1 0.5 0.307329
35 1 0.5 1 0.332707
39 1 0.5 0.5 0.332707
34 1 1.66118e-15 0.25 0.346596
36 1 0.5 0.25 0.37079
38 1 1.62584e-15 0.75 0.346596
40 1 0.5 0.75 0.37079
41 1 9.23124e-15 3.02719e-16 0.38507
45 1 9.2077e-15 0.5 0.38507
42 1 3.11442e-14 0.383333 0.425658
43 1 0.5 0.133333 0.41138
46 1 3.10152e-14 0.883333 0.425658
47 1 0.5 0.633333 0.41138
44 1 0.5 0.383333 0.449853
48 1 0.5 0.883333 0.449853
49 1 1 0.133333 0.46374
51 1 0.5 0.133333 0.489122
53 1 1 0.633333 0.46374
55 1 0.5 0.633333 0.489122
50 1 1 0.383333 0.502449
52 1 0.5 0.383333 0.527987
54 1 1 0.883333 0.502449
56 1 0.5 0.883333 0.527987
57 1 6.29841e-12 0.133333 0.541132
61 1 6.2987e-12 0.633333 0.541132
58 1 4.65126e-11 0.383333 0.579845
59 1 0.5 0.133333 0.566793
60 1 0.5 0.383333 0.605557
62 1 4.65126e-11 0.883333 0.579845
63 1 0.5 0.633333 0.566793
64 1 0.5 0.883333 0.605557
65 1 1 0.133333 0.618512
66 1 1 0.383333 0.657335
67 1 0.5 0.133333 0.644384
69 1 1 0.633333 0.618512
70 1 1 0.883333 0.657335
71 1 0.5 0.633333 0.644384
68 1 0.5 0.383333 0.682858
72 1 0.5 0.883333 0.682858
73 1 3.64639e-09 0.133333 0.69557
77 1 3.64639e-09 0.633333 0.69557
75 1 0.5 0.133333 0.723151
79 1 0.5 0.633333 0.723151
74 1 5.69983e-08 0.383333 0.733495
76 1 0.5 0.383333 0.759231
78 1 5.69983e-08 0.883333 0.733495
80 1 0.5 0.883333 0.759231
