ITEM: TIMESTEP
376
ITEM: NUMBER OF ATOMS
80
ITEM: BOX BOUNDS pp pp pp
0.0000000000000000e+00 4.6533240000000005e+00
0.0000000000000000e+00 5.8680000000000003e+00
0.0000000000000000e+00 6.5818347000000017e+01
ITEM: ATOMS id type xs ys zs
1 1 8.95674e-10 1.2528e-12 0
2 1 1.71514e-09 0.25 0.0353191
3 1 0.5 1 0.022548
5 1 7.48574e-10 0.5 0
6 1 1.71514e-09 0.75 0.0353191
7 1 0.5 0.5 0.022548
4 1 0.5 0.25 0.0617353
8 1 0.5 0.75 0.0617353
9 1 1 1 0.075098
11 1 0.5 3.51154e-14 0.100316
13 1 1 0.5 0.075098
15 1 0.5 0.5 0.100316
10 1 1 0.25 0.113572
12 1 0.5 0.25 0.139275
14 1 1 0.75 0.113572
16 1 0.5 0.75 0.139275
17 1 1 1 0.152393
21 1 1 0.5 0.152393
18 1 1.47122e-12 0.25 0.191173
19 1 0.5 5.60219e-15 0.178069
20 1 0.5 0.25 0.216872
22 1 1.47108e-12 0.75 0.191173
23 1 0.5 0.5 0.178069
24 1 0.5 0.75 0.216872
25 1 1 1.16538e-15 0.229974
26 1 1 0.25 0.268791
27 1 0.5 1.36224e-15 0.255664
29 1 4.12409e-14 0.5 0.229974
30 1 1 0.75 0.268791
31 1 0.5 0.5 0.255664
28 1 0.5 0.25 0.294433
32 1 0.5 0.75 0.294433
33 1 1 6.05439e-16 0.30761
37 1 1 0.5 0.30761
35 1 0.5 1 0.333241
39 1 0.5 0.5 0.333241
34 1 1.66118e-15 0.25 0.346664
36 1 0.5 0.25 0.371746
38 1 1.62584e-15 0.75 0.346664
40 1 0.5 0.75 0.371746
41 1 9.23124e-15 3.02719e-16 0.385005
45 1 9.2077e-15 0.5 0.385005
42 1 3.11442e-14 0.666667 0.424768
43 1 0.5 0.416667 0.411509
46 1 3.10152e-14 0.166667 0.424768
47 1 0.5 0.916667 0.411509
44 1 0.5 0.666667 0.449851
48 1 0.5 0.166667 0.449851
49 1 1 0.416667 0.463271
51 1 0.5 0.416667 0.488907
53 1 1 0.916667 0.463271
55 1 0.5 0.916667 0.488907
50 1 1 0.666667 0.502077
52 1 0.5 0.666667 0.527728
54 1 1 0.166667 0.502077
56 1 0.5 0.166667 0.527728
57 1 6.29841e-12 0.416667 0.540839
61 1 6.2987e-12 0.916667 0.540839
58 1 4.65126e-11 0.666667 0.579622
59 1 0.5 0.416667 0.566551
60 1 0.5 0.666667 0.605349
62 1 4.65126e-11 0.166667 0.579622
63 1 0.5 0.916667 0.566551
64 1 0.5 0.166667 0.605349
65 1 1 0.416667 0.618346
66 1 1 0.666667 0.657223
67 1 0.5 0.416667 0.644226
69 1 1 0.916667 0.618346
70 1 1 0.166667 0.657223
71 1 0.5 0.916667 0.644226
68 1 0.5 0.666667 0.682746
72 1 0.5 0.166667 0.682746
73 1 3.64639e-09 0.416667 0.695507
77 1 3.64639e-09 0.916667 0.695507
75 1 0.5 0.416667 0.723114
79 1 0.5 0.916667 0.723114
74 1 5.69983e-08 0.666667 0.733495
76 1 0.5 0.666667 0.759231
78 1 5.69983e-08 0.166667 0.733495
80 1 0.5 0.166667 0.759231
