ITEM: TIMESTEP
74
ITEM: NUMBER OF ATOMS
80
ITEM: BOX BOUNDS pp pp pp
0.0000000000000000e+00 4.6533240000000005e+00
0.0000000000000000e+00 5.8680000000000003e+00
0.0000000000000000e+00 6.5818347000000017e+01
ITEM: ATOMS id type xs ys zs
1 1 8.95674e-10 1.2528e-12 0
2 1 1.71514e-09 0.25 0.035319
3 1 0.5 1 0.0225477
5 1 7.48574e-10 0.5 0
6 1 1.71514e-09 0.75 0.035319
7 1 0.5 0.5 0.0225477
4 1 0.5 0.25 0.061735
8 1 0.5 0.75 0.061735
9 1 1 1 0.0750975
11 1 0.5 3.51154e-14 0.100315
13 1 1 0.5 0.0750975
15 1 0.5 0.5 0.100315
10 1 1 0.25 0.113571
12 1 0.5 0.25 0.139275
14 1 1 0.75 0.113571
16 1 0.5 0.75 0.139275
17 1 1 1 0.152392
21 1 1 0.5 0.152392
18 1 1.47122e-12 0.25 0.191173
19 1 0.5 5.60219e-15 0.178068
20 1 0.5 0.25 0.216871
22 1 1.47108e-12 0.75 0.191173
23 1 0.5 0.5 0.178068
24 1 0.5 0.75 0.216871
25 1 1 1.16538e-15 0.229973
26 1 1 0.25 0.26879
27 1 0.5 1.36224e-15 0.255663
29 1 4.12409e-14 0.5 0.229973
30 1 1 0.75 0.26879
31 1 0.5 0.5 0.255663
28 1 0.5 0.25 0.294432
32 1 0.5 0.75 0.294432
33 1 1 6.05439e-16 0.307609
37 1 1 0.5 0.307609
34 1 1.66118e-15 0.25 0.346664
35 1 0.5 1 0.333241
36 1 0.5 0.25 0.371746
38 1 1.62584e-15 0.75 0.346664
39 1 0.5 0.5 0.333241
40 1 0.5 0.75 0.371746
41 1 9.23124e-15 3.02719e-16 0.385006
45 1 9.2077e-15 0.5 0.385006
42 1 3.11442e-14 0.333333 0.424769
43 1 0.5 0.0833333 0.41151
46 1 3.10152e-14 0.833333 0.424769
47 1 0.5 0.583333 0.41151
44 1 0.5 0.333333 0.449852
48 1 0.5 0.833333 0.449852
49 1 1 0.0833333 0.463273
51 1 0.5 0.0833333 0.488908
53 1 1 0.583333 0.463273
55 1 0.5 0.583333 0.488908
50 1 1 0.333333 0.502078
52 1 0.5 0.333333 0.527729
54 1 1 0.833333 0.502078
56 1 0.5 0.833333 0.527729
57 1 6.29841e-12 0.0833333 0.540841
61 1 6.2987e-12 0.583333 0.540841
58 1 4.65126e-11 0.333333 0.579623
59 1 0.5 0.0833333 0.566552
60 1 0.5 0.333333 0.60535
62 1 4.65126e-11 0.833333 0.579623
63 1 0.5 0.583333 0.566552
64 1 0.5 0.833333 0.60535
65 1 1 0.0833333 0.618346
66 1 1 0.333333 0.657223
67 1 0.5 0.0833333 0.644227
69 1 1 0.583333 0.618346
70 1 1 0.833333 0.657223
71 1 0.5 0.583333 0.644227
68 1 0.5 0.333333 0.682747
72 1 0.5 0.833333 0.682747
73 1 3.64639e-09 0.0833333 0.695508
77 1 3.64639e-09 0.583333 0.695508
75 1 0.5 0.0833333 0.723114
79 1 0.5 0.583333 0.723114
74 1 5.69983e-08 0.333333 0.733495
76 1 0.5 0.333333 0.759231
78 1 5.69983e-08 0.833333 0.733495
80 1 0.5 0.833333 0.759231
