ITEM: TIMESTEP
32
ITEM: NUMBER OF ATOMS
80
ITEM: BOX BOUNDS pp pp pp
0.0000000000000000e+00 4.6533240000000005e+00
0.0000000000000000e+00 5.8680000000000003e+00
0.0000000000000000e+00 6.5818347000000017e+01
ITEM: ATOMS id type xs ys zs
1 1 8.95674e-10 1.2528e-12 0
2 1 1.71514e-09 0.25 0.0353403
3 1 0.5 1 0.0225713
5 1 7.48574e-10 0.5 0
6 1 1.71514e-09 0.75 0.0353403
7 1 0.5 0.5 0.0225713
4 1 0.5 0.25 0.0617739
8 1 0.5 0.75 0.0617739
9 1 1 1 0.0751567
11 1 0.5 3.51154e-14 0.100379
13 1 1 0.5 0.0751567
15 1 0.5 0.5 0.100379
10 1 1 0.25 0.113661
12 1 0.5 0.25 0.139365
14 1 1 0.75 0.113661
16 1 0.5 0.75 0.139365
17 1 1 1 0.152509
21 1 1 0.5 0.152509
18 1 1.47122e-12 0.25 0.191315
19 1 0.5 5.60219e-15 0.178188
20 1 0.5 0.25 0.217023
22 1 1.47108e-12 0.75 0.191315
23 1 0.5 0.5 0.178188
24 1 0.5 0.75 0.217023
25 1 1 1.16538e-15 0.230134
26 1 1 0.25 0.268954
27 1 0.5 1.36224e-15 0.255849
29 1 4.12409e-14 0.5 0.230134
30 1 1 0.75 0.268954
31 1 0.5 0.5 0.255849
28 1 0.5 0.25 0.294672
32 1 0.5 0.75 0.294672
33 1 1 6.05439e-16 0.307773
37 1 1 0.5 0.307773
34 1 1.66118e-15 0.25 0.346597
35 1 0.5 1 0.333495
36 1 0.5 0.25 0.372316
38 1 1.62584e-15 0.75 0.346597
39 1 0.5 0.5 0.333495
40 1 0.5 0.75 0.372316
41 1 9.23124e-15 3.02719e-16 0.385377
45 1 9.2077e-15 0.5 0.385377
42 1 3.11442e-14 0.266667 0.424227
43 1 0.5 0.0166667 0.411167
46 1 3.10152e-14 0.766667 0.424227
47 1 0.5 0.516667 0.411167
44 1 0.5 0.266667 0.449947
48 1 0.5 0.766667 0.449947
49 1 1 0.0166667 0.463048
51 1 0.5 0.0166667 0.488773
53 1 1 0.516667 0.463048
55 1 0.5 0.516667 0.488773
50 1 1 0.266667 0.501867
52 1 0.5 0.266667 0.527594
54 1 1 0.766667 0.501867
56 1 0.5 0.766667 0.527594
57 1 6.29841e-12 0.0166667 0.540684
61 1 6.2987e-12 0.516667 0.540684
58 1 4.65126e-11 0.266667 0.579501
59 1 0.5 0.0166667 0.56642
60 1 0.5 0.266667 0.605237
62 1 4.65126e-11 0.766667 0.579501
63 1 0.5 0.516667 0.56642
64 1 0.5 0.766667 0.605237
65 1 1 0.0166667 0.618257
66 1 1 0.266667 0.657163
67 1 0.5 0.0166667 0.644142
69 1 1 0.516667 0.618257
70 1 1 0.766667 0.657163
71 1 0.5 0.516667 0.644142
68 1 0.5 0.266667 0.682686
72 1 0.5 0.766667 0.682686
73 1 3.64639e-09 0.0166667 0.695474
77 1 3.64639e-09 0.516667 0.695474
75 1 0.5 0.0166667 0.723095
79 1 0.5 0.516667 0.723095
74 1 5.69983e-08 0.266667 0.733495
76 1 0.5 0.266667 0.759231
78 1 5.69983e-08 0.766667 0.733495
80 1 0.5 0.766667 0.759231
