ITEM: TIMESTEP
226
ITEM: NUMBER OF ATOMS
80
ITEM: BOX BOUNDS pp pp pp
0.0000000000000000e+00 4.6533240000000005e+00
0.0000000000000000e+00 5.8680000000000003e+00
0.0000000000000000e+00 6.5818347000000017e+01
ITEM: ATOMS id type xs ys zs
1 1 8.95674e-10 1.2528e-12 0
2 1 1.71514e-09 0.25 0.0352245
3 1 0.5 1 0.0224458
5 1 7.48574e-10 0.5 0
6 1 1.71514e-09 0.75 0.0352245
7 1 0.5 0.5 0.0224458
4 1 0.5 0.25 0.0615632
8 1 0.5 0.75 0.0615632
9 1 1 1 0.0748399
11 1 0.5 3.51154e-14 0.100037
13 1 1 0.5 0.0748399
15 1 0.5 0.5 0.100037
10 1 1 0.25 0.113181
12 1 0.5 0.25 0.138877
14 1 1 0.75 0.113181
16 1 0.5 0.75 0.138877
17 1 1 1 0.151884
21 1 1 0.5 0.151884
18 1 1.47122e-12 0.25 0.190563
19 1 0.5 5.60219e-15 0.17754
20 1 0.5 0.25 0.216206
22 1 1.47108e-12 0.75 0.190563
23 1 0.5 0.5 0.17754
24 1 0.5 0.75 0.216206
25 1 1 1.16538e-15 0.229296
26 1 1 0.25 0.268108
27 1 0.5 1.36224e-15 0.254831
29 1 4.12409e-14 0.5 0.229296
30 1 1 0.75 0.268108
31 1 0.5 0.5 0.254831
28 1 0.5 0.25 0.2934
32 1 0.5 0.75 0.2934
33 1 1 6.05439e-16 0.307119
37 1 1 0.5 0.307119
35 1 0.5 1 0.331926
39 1 0.5 0.5 0.331926
34 1 1.66118e-15 0.25 0.346681
36 1 0.5 0.25 0.369472
38 1 1.62584e-15 0.75 0.346681
40 1 0.5 0.75 0.369472
41 1 9.23124e-15 3.02719e-16 0.386685
45 1 9.2077e-15 0.5 0.386685
42 1 3.11442e-14 0.5 0.426901
43 1 0.5 0.25 0.409688
46 1 3.10152e-14 5.79707e-14 0.426901
47 1 0.5 0.75 0.409688
44 1 0.5 0.5 0.449693
48 1 0.5 1 0.449693
49 1 1 0.25 0.464446
51 1 0.5 0.25 0.489256
53 1 1 0.75 0.464446
55 1 0.5 0.75 0.489256
50 1 1 0.5 0.502969
52 1 0.5 0.5 0.528269
54 1 1 1 0.502969
56 1 0.5 1 0.528269
57 1 6.29841e-12 0.25 0.541531
61 1 6.2987e-12 0.75 0.541531
58 1 4.65126e-11 0.5 0.580145
59 1 0.5 0.25 0.567085
60 1 0.5 0.5 0.605818
62 1 4.65126e-11 1 0.580145
63 1 0.5 0.75 0.567085
64 1 0.5 1.40531e-11 0.605818
65 1 1 0.25 0.618734
66 1 1 0.5 0.657483
67 1 0.5 0.25 0.644585
69 1 1 0.75 0.618734
70 1 1 1 0.657483
71 1 0.5 0.75 0.644585
68 1 0.5 0.5 0.683001
72 1 0.5 4.32691e-10 0.683001
73 1 3.64639e-09 0.25 0.695651
77 1 3.64639e-09 0.75 0.695651
75 1 0.5 0.25 0.723198
79 1 0.5 0.75 0.723198
74 1 5.69983e-08 0.5 0.733495
76 1 0.5 0.5 0.759231
78 1 5.69983e-08 2.10301e-09 0.733495
80 1 0.5 1 0.759231
