ITEM: TIMESTEP
418
ITEM: NUMBER OF ATOMS
80
ITEM: BOX BOUNDS pp pp pp
0.0000000000000000e+00 4.6533240000000005e+00
0.0000000000000000e+00 5.8680000000000003e+00
0.0000000000000000e+00 6.5818347000000017e+01
ITEM: ATOMS id type xs ys zs
1 1 8.95674e-10 1.2528e-12 0
2 1 1.71514e-09 0.25 0.0353407
3 1 0.5 1 0.0225717
5 1 7.48574e-10 0.5 0
6 1 1.71514e-09 0.75 0.0353407
7 1 0.5 0.5 0.0225717
4 1 0.5 0.25 0.0617744
8 1 0.5 0.75 0.0617744
9 1 1 1 0.0751574
11 1 0.5 3.51154e-14 0.10038
13 1 1 0.5 0.0751574
15 1 0.5 0.5 0.10038
10 1 1 0.25 0.113662
12 1 0.5 0.25 0.139366
14 1 1 0.75 0.113662
16 1 0.5 0.75 0.139366
17 1 1 1 0.15251
21 1 1 0.5 0.15251
18 1 1.47122e-12 0.25 0.191316
19 1 0.5 5.60219e-15 0.178189
20 1 0.5 0.25 0.217024
22 1 1.47108e-12 0.75 0.191316
23 1 0.5 0.5 0.178189
24 1 0.5 0.75 0.217024
25 1 1 1.16538e-15 0.230134
26 1 1 0.25 0.268954
27 1 0.5 1.36224e-15 0.255849
29 1 4.12409e-14 0.5 0.230134
30 1 1 0.75 0.268954
31 1 0.5 0.5 0.255849
28 1 0.5 0.25 0.294673
32 1 0.5 0.75 0.294673
33 1 1 6.05439e-16 0.307772
37 1 1 0.5 0.307772
35 1 0.5 1 0.333495
39 1 0.5 0.5 0.333495
34 1 1.66118e-15 0.25 0.346597
36 1 0.5 0.25 0.372316
38 1 1.62584e-15 0.75 0.346597
40 1 0.5 0.75 0.372316
41 1 9.23124e-15 3.02719e-16 0.385377
45 1 9.2077e-15 0.5 0.385377
42 1 3.11442e-14 0.733333 0.424226
43 1 0.5 0.483333 0.411166
46 1 3.10152e-14 0.233333 0.424226
47 1 0.5 0.983333 0.411166
44 1 0.5 0.733333 0.449946
48 1 0.5 0.233333 0.449946
49 1 1 0.483333 0.463046
51 1 0.5 0.483333 0.488771
53 1 1 0.983333 0.463046
55 1 0.5 0.983333 0.488771
50 1 1 0.733333 0.501866
52 1 0.5 0.733333 0.527592
54 1 1 0.233333 0.501866
56 1 0.5 0.233333 0.527592
57 1 6.29841e-12 0.483333 0.540683
61 1 6.2987e-12 0.983333 0.540683
58 1 4.65126e-11 0.733333 0.579499
59 1 0.5 0.483333 0.566419
60 1 0.5 0.733333 0.605236
62 1 4.65126e-11 0.233333 0.579499
63 1 0.5 0.983333 0.566419
64 1 0.5 0.233333 0.605236
65 1 1 0.483333 0.618255
66 1 1 0.733333 0.657162
67 1 0.5 0.483333 0.64414
69 1 1 0.983333 0.618255
70 1 1 0.233333 0.657162
71 1 0.5 0.983333 0.64414
68 1 0.5 0.733333 0.682685
72 1 0.5 0.233333 0.682685
73 1 3.64639e-09 0.483333 0.695473
77 1 3.64639e-09 0.983333 0.695473
75 1 0.5 0.483333 0.723094
79 1 0.5 0.983333 0.723094
74 1 5.69983e-08 0.733333 0.733495
76 1 0.5 0.733333 0.759231
78 1 5.69983e-08 0.233333 0.733495
80 1 0.5 0.233333 0.759231
