ITEM: TIMESTEP
239
ITEM: NUMBER OF ATOMS
80
ITEM: BOX BOUNDS pp pp pp
0.0000000000000000e+00 4.6533240000000005e+00
0.0000000000000000e+00 5.8680000000000003e+00
0.0000000000000000e+00 6.5818347000000017e+01
ITEM: ATOMS id type xs ys zs
1 1 8.95674e-10 1.2528e-12 0
2 1 1.71514e-09 0.25 0.0352246
3 1 0.5 1 0.0224458
5 1 7.48574e-10 0.5 0
6 1 1.71514e-09 0.75 0.0352246
7 1 0.5 0.5 0.0224458
4 1 0.5 0.25 0.0615635
8 1 0.5 0.75 0.0615635
9 1 1 1 0.0748402
11 1 0.5 3.51154e-14 0.100038
13 1 1 0.5 0.0748402
15 1 0.5 0.5 0.100038
10 1 1 0.25 0.113182
12 1 0.5 0.25 0.138879
14 1 1 0.75 0.113182
16 1 0.5 0.75 0.138879
17 1 1 1 0.151885
21 1 1 0.5 0.151885
18 1 1.47122e-12 0.25 0.190562
19 1 0.5 5.60219e-15 0.177543
20 1 0.5 0.25 0.216211
22 1 1.47108e-12 0.75 0.190562
23 1 0.5 0.5 0.177543
24 1 0.5 0.75 0.216211
25 1 1 1.16538e-15 0.229292
26 1 1 0.25 0.268092
27 1 0.5 1.36224e-15 0.254839
29 1 4.12409e-14 0.5 0.229292
30 1 1 0.75 0.268092
31 1 0.5 0.5 0.254839
28 1 0.5 0.25 0.293419
32 1 0.5 0.75 0.293419
33 1 1 6.05439e-16 0.307083
37 1 1 0.5 0.307083
35 1 0.5 1 0.33195
39 1 0.5 0.5 0.33195
34 1 1.66118e-15 0.25 0.346594
36 1 0.5 0.25 0.369578
38 1 1.62584e-15 0.75 0.346594
40 1 0.5 0.75 0.369578
41 1 9.23124e-15 3.02719e-16 0.38637
45 1 9.2077e-15 0.5 0.38637
42 1 3.11442e-14 0.533333 0.426792
43 1 0.5 0.283333 0.410001
46 1 3.10152e-14 0.0333333 0.426792
47 1 0.5 0.783333 0.410001
44 1 0.5 0.533333 0.449777
48 1 0.5 0.0333333 0.449777
49 1 1 0.283333 0.46442
51 1 0.5 0.283333 0.489289
53 1 1 0.783333 0.46442
55 1 0.5 0.783333 0.489289
50 1 1 0.533333 0.502947
52 1 0.5 0.533333 0.528282
54 1 1 0.0333333 0.502947
56 1 0.5 0.0333333 0.528282
57 1 6.29841e-12 0.283333 0.541521
61 1 6.2987e-12 0.783333 0.541521
58 1 4.65126e-11 0.533333 0.580138
59 1 0.5 0.283333 0.567087
60 1 0.5 0.533333 0.605816
62 1 4.65126e-11 0.0333333 0.580138
63 1 0.5 0.783333 0.567087
64 1 0.5 0.0333333 0.605816
65 1 1 0.283333 0.618729
66 1 1 0.533333 0.65748
67 1 0.5 0.283333 0.644582
69 1 1 0.783333 0.618729
70 1 1 0.0333333 0.65748
71 1 0.5 0.783333 0.644582
68 1 0.5 0.533333 0.682999
72 1 0.5 0.0333333 0.682999
73 1 3.64639e-09 0.283333 0.695649
77 1 3.64639e-09 0.783333 0.695649
75 1 0.5 0.283333 0.723197
79 1 0.5 0.783333 0.723197
74 1 5.69983e-08 0.533333 0.733495
76 1 0.5 0.533333 0.759231
78 1 5.69983e-08 0.0333333 0.733495
80 1 0.5 0.0333333 0.759231
