ITEM: TIMESTEP
425
ITEM: NUMBER OF ATOMS
80
ITEM: BOX BOUNDS pp pp pp
0.0000000000000000e+00 4.6533240000000005e+00
0.0000000000000000e+00 5.8680000000000003e+00
0.0000000000000000e+00 6.5818347000000017e+01
ITEM: ATOMS id type xs ys zs
1 1 8.95674e-10 1.2528e-12 0
2 1 1.71514e-09 0.25 0.0353408
3 1 0.5 1 0.022572
5 1 7.48574e-10 0.5 0
6 1 1.71514e-09 0.75 0.0353408
7 1 0.5 0.5 0.022572
4 1 0.5 0.25 0.0617747
8 1 0.5 0.75 0.0617747
9 1 1 1 0.0751574
11 1 0.5 3.51154e-14 0.10038
13 1 1 0.5 0.0751574
15 1 0.5 0.5 0.10038
10 1 1 0.25 0.113661
12 1 0.5 0.25 0.139366
14 1 1 0.75 0.113661
16 1 0.5 0.75 0.139366
17 1 1 1 0.152509
21 1 1 0.5 0.152509
18 1 1.47122e-12 0.25 0.191313
19 1 0.5 5.60219e-15 0.178188
20 1 0.5 0.25 0.217022
22 1 1.47108e-12 0.75 0.191313
23 1 0.5 0.5 0.178188
24 1 0.5 0.75 0.217022
25 1 1 1.16538e-15 0.230132
26 1 1 0.25 0.268951
27 1 0.5 1.36224e-15 0.255847
29 1 4.12409e-14 0.5 0.230132
30 1 1 0.75 0.268951
31 1 0.5 0.5 0.255847
28 1 0.5 0.25 0.294669
32 1 0.5 0.75 0.294669
33 1 1 6.05439e-16 0.307771
37 1 1 0.5 0.307771
35 1 0.5 1 0.33349
39 1 0.5 0.5 0.33349
34 1 1.66118e-15 0.25 0.346591
36 1 0.5 0.25 0.372311
38 1 1.62584e-15 0.75 0.346591
40 1 0.5 0.75 0.372311
41 1 9.23124e-15 3.02719e-16 0.385412
45 1 9.2077e-15 0.5 0.385412
42 1 3.11442e-14 0.75 0.424233
43 1 0.5 0.5 0.411133
46 1 3.10152e-14 0.25 0.424233
47 1 0.5 1.36224e-15 0.411133
44 1 0.5 0.75 0.449954
48 1 0.5 0.25 0.449954
49 1 1 0.5 0.463053
51 1 0.5 0.5 0.488776
53 1 1 1.96768e-15 0.463053
55 1 0.5 1 0.488776
50 1 1 0.75 0.501871
52 1 0.5 0.75 0.527598
54 1 1 0.25 0.501871
56 1 0.5 0.25 0.527598
57 1 6.29841e-12 0.5 0.540687
61 1 6.2987e-12 1 0.540687
58 1 4.65126e-11 0.75 0.579503
59 1 0.5 0.5 0.566423
60 1 0.5 0.75 0.60524
62 1 4.65126e-11 0.25 0.579503
63 1 0.5 1.36224e-15 0.566423
64 1 0.5 0.25 0.60524
65 1 1 0.5 0.618258
66 1 1 0.75 0.657164
67 1 0.5 0.5 0.644143
69 1 1 7.56798e-16 0.618258
70 1 1 0.25 0.657164
71 1 0.5 2.11904e-15 0.644143
68 1 0.5 0.75 0.682687
72 1 0.5 0.25 0.682687
73 1 3.64639e-09 0.5 0.695474
77 1 3.64639e-09 1.5136e-15 0.695474
75 1 0.5 0.5 0.723095
79 1 0.5 1.81632e-14 0.723095
74 1 5.69983e-08 0.75 0.733495
76 1 0.5 0.75 0.759231
78 1 5.69983e-08 0.25 0.733495
80 1 0.5 0.25 0.759231
