ITEM: TIMESTEP
232
ITEM: NUMBER OF ATOMS
80
ITEM: BOX BOUNDS pp pp pp
0.0000000000000000e+00 4.6533240000000005e+00
0.0000000000000000e+00 5.8680000000000003e+00
0.0000000000000000e+00 6.5818347000000017e+01
ITEM: ATOMS id type xs ys zs
1 1 8.95674e-10 1.2528e-12 0
2 1 1.71514e-09 0.25 0.0352246
3 1 0.5 1 0.0224457
5 1 7.48574e-10 0.5 0
6 1 1.71514e-09 0.75 0.0352246
7 1 0.5 0.5 0.0224457
4 1 0.5 0.25 0.0615633
8 1 0.5 0.75 0.0615633
9 1 1 1 0.0748401
11 1 0.5 3.51154e-14 0.100038
13 1 1 0.5 0.0748401
15 1 0.5 0.5 0.100038
10 1 1 0.25 0.113182
12 1 0.5 0.25 0.138878
14 1 1 0.75 0.113182
16 1 0.5 0.75 0.138878
17 1 1 1 0.151884
21 1 1 0.5 0.151884
18 1 1.47122e-12 0.25 0.190563
19 1 0.5 5.60219e-15 0.177541
20 1 0.5 0.25 0.216207
22 1 1.47108e-12 0.75 0.190563
23 1 0.5 0.5 0.177541
24 1 0.5 0.75 0.216207
25 1 1 1.16538e-15 0.229294
26 1 1 0.25 0.268102
27 1 0.5 1.36224e-15 0.254831
29 1 4.12409e-14 0.5 0.229294
30 1 1 0.75 0.268102
31 1 0.5 0.5 0.254831
28 1 0.5 0.25 0.293402
32 1 0.5 0.75 0.293402
33 1 1 6.05439e-16 0.307107
37 1 1 0.5 0.307107
35 1 0.5 1 0.331926
39 1 0.5 0.5 0.331926
34 1 1.66118e-15 0.25 0.346655
36 1 0.5 0.25 0.369493
38 1 1.62584e-15 0.75 0.346655
40 1 0.5 0.75 0.369493
41 1 9.23124e-15 3.02719e-16 0.386607
45 1 9.2077e-15 0.5 0.386607
42 1 3.11442e-14 0.516667 0.426879
43 1 0.5 0.266667 0.409764
46 1 3.10152e-14 0.0166667 0.426879
47 1 0.5 0.766667 0.409764
44 1 0.5 0.516667 0.449717
48 1 0.5 0.0166667 0.449717
49 1 1 0.266667 0.464444
51 1 0.5 0.266667 0.489266
53 1 1 0.766667 0.464444
55 1 0.5 0.766667 0.489266
50 1 1 0.516667 0.502965
52 1 0.5 0.516667 0.528274
54 1 1 0.0166667 0.502965
56 1 0.5 0.0166667 0.528274
57 1 6.29841e-12 0.266667 0.54153
61 1 6.2987e-12 0.766667 0.54153
58 1 4.65126e-11 0.516667 0.580143
59 1 0.5 0.266667 0.567086
60 1 0.5 0.516667 0.605817
62 1 4.65126e-11 0.0166667 0.580143
63 1 0.5 0.766667 0.567086
64 1 0.5 0.0166667 0.605817
65 1 1 0.266667 0.618732
66 1 1 0.516667 0.657482
67 1 0.5 0.266667 0.644583
69 1 1 0.766667 0.618732
70 1 1 0.0166667 0.657482
71 1 0.5 0.766667 0.644583
68 1 0.5 0.516667 0.682999
72 1 0.5 0.0166667 0.682999
73 1 3.64639e-09 0.266667 0.69565
77 1 3.64639e-09 0.766667 0.69565
75 1 0.5 0.266667 0.723197
79 1 0.5 0.766667 0.723197
74 1 5.69983e-08 0.516667 0.733495
76 1 0.5 0.516667 0.759231
78 1 5.69983e-08 0.0166667 0.733495
80 1 0.5 0.0166667 0.759231
