ITEM: TIMESTEP
583
ITEM: NUMBER OF ATOMS
80
ITEM: BOX BOUNDS pp pp pp
0.0000000000000000e+00 5.6825487348095471e+00
0.0000000000000000e+00 7.1176886540000002e+00
0.0000000000000000e+00 7.6640963165803498e+01
ITEM: ATOMS id type xs ys zs
1 1 0 0 0
2 1 1 0.25 0.0298381
5 1 0 0.5 0
6 1 1 0.75 0.0298381
3 1 0.379583 3.54825e-05 0.174436
7 1 0.379583 0.499965 0.174436
4 1 0.371121 0.25 0.204997
8 1 0.371125 0.75 0.204993
9 1 0.872585 1.44325e-05 0.199468
13 1 0.872585 0.499986 0.199468
10 1 0.998558 0.25 0.234369
11 1 0.508938 0.999993 0.235122
14 1 0.998565 0.75 0.234367
15 1 0.508938 0.500007 0.235122
12 1 0.370932 0.25 0.267035
16 1 0.370928 0.75 0.267036
17 1 0.872594 0.999996 0.267457
18 1 0.00298213 0.25 0.30006
19 1 0.502471 3.95406e-07 0.299873
21 1 0.872594 0.500004 0.267457
22 1 0.00298131 0.75 0.30006
23 1 0.502471 0.5 0.299873
20 1 0.37193 0.25 0.332695
24 1 0.371931 0.75 0.332695
25 1 0.871633 1.23872e-06 0.332692
29 1 0.871633 0.499999 0.332692
26 1 0.00270522 0.25 0.365411
27 1 0.502693 2.29395e-07 0.365433
30 1 0.00270502 0.75 0.365411
31 1 0.502693 0.5 0.365433
28 1 0.371773 0.25 0.398153
32 1 0.371772 0.75 0.398153
33 1 0.871804 1 0.398148
37 1 0.871804 0.5 0.398148
34 1 0.00269307 0.25 0.430874
35 1 0.502702 1 0.430873
38 1 0.00269323 0.75 0.430874
39 1 0.502702 0.5 0.430873
36 1 0.3718 0.25 0.463797
40 1 0.3718 0.75 0.463797
41 1 0.871798 4.20845e-08 0.463798
45 1 0.871798 0.5 0.463798
42 1 0.00269917 0.433333 0.500347
43 1 0.502697 0.183333 0.500347
46 1 0.0026991 0.933333 0.500347
47 1 0.502697 0.683333 0.500347
44 1 0.371776 0.433333 0.533271
48 1 0.371776 0.933333 0.533271
49 1 0.871783 0.183333 0.53327
50 1 0.00267534 0.433333 0.565995
51 1 0.502698 0.183333 0.565991
53 1 0.871783 0.683333 0.53327
54 1 0.00267536 0.933333 0.565995
55 1 0.502698 0.683333 0.565991
52 1 0.371784 0.433333 0.598713
56 1 0.371784 0.933333 0.598713
57 1 0.871773 0.183333 0.59873
61 1 0.871773 0.683333 0.59873
58 1 0.00280372 0.433333 0.63145
59 1 0.502578 0.183333 0.631449
62 1 0.00280372 0.933333 0.63145
63 1 0.502578 0.683333 0.631449
60 1 0.371965 0.433333 0.664248
64 1 0.371965 0.933333 0.664248
65 1 0.87158 0.183333 0.664105
69 1 0.87158 0.683333 0.664105
66 1 0.00207867 0.433333 0.696744
67 1 0.503324 0.183333 0.697058
70 1 0.00207867 0.933333 0.696744
71 1 0.503324 0.683333 0.697058
68 1 0.367415 0.433333 0.729186
72 1 0.367415 0.933333 0.729186
73 1 0.875288 0.183333 0.729769
77 1 0.875288 0.683333 0.729769
74 1 0 0.433333 0.764068
75 1 0.501436 0.183333 0.759866
78 1 0 0.933333 0.764068
79 1 0.501436 0.683333 0.759866
76 1 0.5 0.433333 0.790877
80 1 0.5 0.933333 0.790877
