ITEM: TIMESTEP
340
ITEM: NUMBER OF ATOMS
80
ITEM: BOX BOUNDS pp pp pp
0.0000000000000000e+00 4.6533240000000005e+00
0.0000000000000000e+00 5.8680000000000003e+00
0.0000000000000000e+00 6.5818347000000017e+01
ITEM: ATOMS id type xs ys zs
1 1 8.95674e-10 1.2528e-12 0
2 1 1.71514e-09 0.25 0.0352928
3 1 0.5 1 0.0225189
5 1 7.48574e-10 0.5 0
6 1 1.71514e-09 0.75 0.0352928
7 1 0.5 0.5 0.0225189
4 1 0.5 0.25 0.0616872
8 1 0.5 0.75 0.0616872
9 1 1 1 0.0750247
11 1 0.5 3.51154e-14 0.100237
13 1 1 0.5 0.0750247
15 1 0.5 0.5 0.100237
10 1 1 0.25 0.113461
12 1 0.5 0.25 0.139164
14 1 1 0.75 0.113461
16 1 0.5 0.75 0.139164
17 1 1 1 0.152248
21 1 1 0.5 0.152248
18 1 1.47122e-12 0.25 0.190998
19 1 0.5 5.60219e-15 0.177921
20 1 0.5 0.25 0.216687
22 1 1.47108e-12 0.75 0.190998
23 1 0.5 0.5 0.177921
24 1 0.5 0.75 0.216687
25 1 1 1.16538e-15 0.229776
26 1 1 0.25 0.268584
27 1 0.5 1.36224e-15 0.255435
29 1 4.12409e-14 0.5 0.229776
30 1 1 0.75 0.268584
31 1 0.5 0.5 0.255435
28 1 0.5 0.25 0.294151
32 1 0.5 0.75 0.294151
33 1 1 6.05439e-16 0.307429
37 1 1 0.5 0.307429
35 1 0.5 1 0.332904
39 1 0.5 0.5 0.332904
34 1 1.66118e-15 0.25 0.346632
36 1 0.5 0.25 0.371115
38 1 1.62584e-15 0.75 0.346632
40 1 0.5 0.75 0.371115
41 1 9.23124e-15 3.02719e-16 0.385012
45 1 9.2077e-15 0.5 0.385012
42 1 3.11442e-14 0.633333 0.425356
43 1 0.5 0.383333 0.41146
46 1 3.10152e-14 0.133333 0.425356
47 1 0.5 0.883333 0.41146
44 1 0.5 0.633333 0.449841
48 1 0.5 0.133333 0.449841
49 1 1 0.383333 0.463567
51 1 0.5 0.383333 0.489045
53 1 1 0.883333 0.463567
55 1 0.5 0.883333 0.489045
50 1 1 0.633333 0.502317
52 1 0.5 0.633333 0.527893
54 1 1 0.133333 0.502317
56 1 0.5 0.133333 0.527893
57 1 6.29841e-12 0.383333 0.541027
61 1 6.2987e-12 0.883333 0.541027
58 1 4.65126e-11 0.633333 0.579765
59 1 0.5 0.383333 0.566706
60 1 0.5 0.633333 0.605483
62 1 4.65126e-11 0.133333 0.579765
63 1 0.5 0.883333 0.566706
64 1 0.5 0.133333 0.605483
65 1 1 0.383333 0.618452
66 1 1 0.633333 0.657294
67 1 0.5 0.383333 0.644327
69 1 1 0.883333 0.618452
70 1 1 0.133333 0.657294
71 1 0.5 0.883333 0.644327
68 1 0.5 0.633333 0.682818
72 1 0.5 0.133333 0.682818
73 1 3.64639e-09 0.383333 0.695547
77 1 3.64639e-09 0.883333 0.695547
75 1 0.5 0.383333 0.723137
79 1 0.5 0.883333 0.723137
74 1 5.69983e-08 0.633333 0.733495
76 1 0.5 0.633333 0.759231
78 1 5.69983e-08 0.133333 0.733495
80 1 0.5 0.133333 0.759231
