ITEM: TIMESTEP
56
ITEM: NUMBER OF ATOMS
80
ITEM: BOX BOUNDS pp pp pp
0.0000000000000000e+00 4.6533240000000005e+00
0.0000000000000000e+00 5.8680000000000003e+00
0.0000000000000000e+00 6.5818347000000017e+01
ITEM: ATOMS id type xs ys zs
1 1 8.95674e-10 1.2528e-12 0
2 1 1.71514e-09 0.25 0.0353342
3 1 0.5 1 0.0225645
5 1 7.48574e-10 0.5 0
6 1 1.71514e-09 0.75 0.0353342
7 1 0.5 0.5 0.0225645
4 1 0.5 0.25 0.0617626
8 1 0.5 0.75 0.0617626
9 1 1 1 0.0751398
11 1 0.5 3.51154e-14 0.100361
13 1 1 0.5 0.0751398
15 1 0.5 0.5 0.100361
10 1 1 0.25 0.113635
12 1 0.5 0.25 0.139339
14 1 1 0.75 0.113635
16 1 0.5 0.75 0.139339
17 1 1 1 0.152476
21 1 1 0.5 0.152476
18 1 1.47122e-12 0.25 0.191275
19 1 0.5 5.60219e-15 0.178153
20 1 0.5 0.25 0.216977
22 1 1.47108e-12 0.75 0.191275
23 1 0.5 0.5 0.178153
24 1 0.5 0.75 0.216977
25 1 1 1.16538e-15 0.23009
26 1 1 0.25 0.268915
27 1 0.5 1.36224e-15 0.255791
29 1 4.12409e-14 0.5 0.23009
30 1 1 0.75 0.268915
31 1 0.5 0.5 0.255791
28 1 0.5 0.25 0.29459
32 1 0.5 0.75 0.29459
33 1 1 6.05439e-16 0.307737
37 1 1 0.5 0.307737
34 1 1.66118e-15 0.25 0.346709
35 1 0.5 1 0.333408
36 1 0.5 0.25 0.372072
38 1 1.62584e-15 0.75 0.346709
39 1 0.5 0.5 0.333408
40 1 0.5 0.75 0.372072
41 1 9.23124e-15 3.02719e-16 0.385172
45 1 9.2077e-15 0.5 0.385172
42 1 3.11442e-14 0.316667 0.424475
43 1 0.5 0.0666667 0.411376
46 1 3.10152e-14 0.816667 0.424475
47 1 0.5 0.566667 0.411376
44 1 0.5 0.316667 0.449839
48 1 0.5 0.816667 0.449839
49 1 1 0.0666667 0.463138
51 1 0.5 0.0666667 0.488812
53 1 1 0.566667 0.463138
55 1 0.5 0.566667 0.488812
50 1 1 0.316667 0.501953
52 1 0.5 0.316667 0.527636
54 1 1 0.816667 0.501953
56 1 0.5 0.816667 0.527636
57 1 6.29841e-12 0.0666667 0.540745
61 1 6.2987e-12 0.566667 0.540745
58 1 4.65126e-11 0.316667 0.579548
59 1 0.5 0.0666667 0.566467
60 1 0.5 0.316667 0.605279
62 1 4.65126e-11 0.816667 0.579548
63 1 0.5 0.566667 0.566467
64 1 0.5 0.816667 0.605279
65 1 1 0.0666667 0.618291
66 1 1 0.316667 0.657186
67 1 0.5 0.0666667 0.644174
69 1 1 0.566667 0.618291
70 1 1 0.816667 0.657186
71 1 0.5 0.566667 0.644174
68 1 0.5 0.316667 0.682709
72 1 0.5 0.816667 0.682709
73 1 3.64639e-09 0.0666667 0.695487
77 1 3.64639e-09 0.566667 0.695487
75 1 0.5 0.0666667 0.723102
79 1 0.5 0.566667 0.723102
74 1 5.69983e-08 0.316667 0.733495
76 1 0.5 0.316667 0.759231
78 1 5.69983e-08 0.816667 0.733495
80 1 0.5 0.816667 0.759231
