ITEM: TIMESTEP
183
ITEM: NUMBER OF ATOMS
80
ITEM: BOX BOUNDS pp pp pp
0.0000000000000000e+00 4.6533240000000005e+00
0.0000000000000000e+00 5.8680000000000003e+00
0.0000000000000000e+00 6.5818347000000017e+01
ITEM: ATOMS id type xs ys zs
1 1 8.95674e-10 1.2528e-12 0
2 1 1.71514e-09 0.25 0.035239
3 1 0.5 1 0.0224613
5 1 7.48574e-10 0.5 0
6 1 1.71514e-09 0.75 0.035239
7 1 0.5 0.5 0.0224613
4 1 0.5 0.25 0.0615898
8 1 0.5 0.75 0.0615898
9 1 1 1 0.0748788
11 1 0.5 3.51154e-14 0.10008
13 1 1 0.5 0.0748788
15 1 0.5 0.5 0.10008
10 1 1 0.25 0.11324
12 1 0.5 0.25 0.138939
14 1 1 0.75 0.11324
16 1 0.5 0.75 0.138939
17 1 1 1 0.151959
21 1 1 0.5 0.151959
18 1 1.47122e-12 0.25 0.19065
19 1 0.5 5.60219e-15 0.177622
20 1 0.5 0.25 0.216311
22 1 1.47108e-12 0.75 0.19065
23 1 0.5 0.5 0.177622
24 1 0.5 0.75 0.216311
25 1 1 1.16538e-15 0.229386
26 1 1 0.25 0.268181
27 1 0.5 1.36224e-15 0.254965
29 1 4.12409e-14 0.5 0.229386
30 1 1 0.75 0.268181
31 1 0.5 0.5 0.254965
28 1 0.5 0.25 0.293579
32 1 0.5 0.75 0.293579
33 1 1 6.05439e-16 0.307125
37 1 1 0.5 0.307125
35 1 0.5 1 0.332164
39 1 0.5 0.5 0.332164
34 1 1.66118e-15 0.25 0.346549
36 1 0.5 0.25 0.369918
38 1 1.62584e-15 0.75 0.346549
40 1 0.5 0.75 0.369918
41 1 9.23124e-15 3.02719e-16 0.385822
45 1 9.2077e-15 0.5 0.385822
42 1 3.11442e-14 0.433333 0.426469
43 1 0.5 0.183333 0.410566
46 1 3.10152e-14 0.933333 0.426469
47 1 0.5 0.683333 0.410566
44 1 0.5 0.433333 0.449839
48 1 0.5 0.933333 0.449839
49 1 1 0.183333 0.464223
51 1 0.5 0.183333 0.489265
53 1 1 0.683333 0.464223
55 1 0.5 0.683333 0.489265
50 1 1 0.433333 0.502805
52 1 0.5 0.433333 0.528212
54 1 1 0.933333 0.502805
56 1 0.5 0.933333 0.528212
57 1 6.29841e-12 0.183333 0.541413
61 1 6.2987e-12 0.683333 0.541413
58 1 4.65126e-11 0.433333 0.580057
59 1 0.5 0.183333 0.567011
60 1 0.5 0.433333 0.605748
62 1 4.65126e-11 0.933333 0.580057
63 1 0.5 0.683333 0.567011
64 1 0.5 0.933333 0.605748
65 1 1 0.183333 0.61867
66 1 1 0.433333 0.65744
67 1 0.5 0.183333 0.644529
69 1 1 0.683333 0.61867
70 1 1 0.933333 0.65744
71 1 0.5 0.683333 0.644529
68 1 0.5 0.433333 0.682961
72 1 0.5 0.933333 0.682961
73 1 3.64639e-09 0.183333 0.695628
77 1 3.64639e-09 0.683333 0.695628
75 1 0.5 0.183333 0.723184
79 1 0.5 0.683333 0.723184
74 1 5.69983e-08 0.433333 0.733495
76 1 0.5 0.433333 0.759231
78 1 5.69983e-08 0.933333 0.733495
80 1 0.5 0.933333 0.759231
