ITEM: TIMESTEP
925
ITEM: NUMBER OF ATOMS
80
ITEM: BOX BOUNDS pp pp pp
0.0000000000000000e+00 5.6825487348095471e+00
0.0000000000000000e+00 7.1176886540000002e+00
0.0000000000000000e+00 7.6640963165803498e+01
ITEM: ATOMS id type xs ys zs
1 1 0 0 0
2 1 1 0.25 0.0298381
5 1 0 0.5 0
6 1 1 0.75 0.0298381
3 1 0.379583 3.54825e-05 0.17821
7 1 0.379583 0.499965 0.17821
4 1 0.371121 0.25 0.208771
8 1 0.371125 0.75 0.208767
9 1 0.872585 1.44325e-05 0.203242
13 1 0.872585 0.499986 0.203242
10 1 0.998558 0.25 0.238142
11 1 0.508938 0.999993 0.238896
14 1 0.998565 0.75 0.238141
15 1 0.508938 0.500007 0.238896
12 1 0.370932 0.25 0.270809
16 1 0.370928 0.75 0.270809
17 1 0.872594 0.999996 0.27123
18 1 0.00298213 0.25 0.303832
19 1 0.502471 3.95406e-07 0.303645
21 1 0.872594 0.500004 0.27123
22 1 0.00298131 0.75 0.303833
23 1 0.502471 0.5 0.303645
20 1 0.37193 0.25 0.336466
24 1 0.371931 0.75 0.336466
25 1 0.871633 1.23872e-06 0.336464
29 1 0.871633 0.499999 0.336464
26 1 0.00270522 0.25 0.369182
27 1 0.502693 2.29395e-07 0.369204
30 1 0.00270502 0.75 0.369182
31 1 0.502693 0.5 0.369204
28 1 0.371773 0.25 0.401924
32 1 0.371772 0.75 0.401924
33 1 0.871804 1 0.401919
37 1 0.871804 0.5 0.401919
34 1 0.00269307 0.25 0.434651
35 1 0.502702 1 0.434649
38 1 0.00269323 0.75 0.434651
39 1 0.502702 0.5 0.434649
36 1 0.3718 0.25 0.467323
40 1 0.3718 0.75 0.467323
41 1 0.871798 4.20845e-08 0.467324
45 1 0.871798 0.5 0.467324
42 1 0.00269917 0.683333 0.500591
43 1 0.502697 0.433333 0.500591
46 1 0.0026991 0.183333 0.500591
47 1 0.502697 0.933333 0.500591
44 1 0.371776 0.683333 0.533265
48 1 0.371776 0.183333 0.533265
49 1 0.871783 0.433333 0.533264
50 1 0.00267534 0.683333 0.565995
51 1 0.502698 0.433333 0.565991
53 1 0.871783 0.933333 0.533264
54 1 0.00267536 0.183333 0.565995
55 1 0.502698 0.933333 0.565991
52 1 0.371784 0.683333 0.598713
56 1 0.371784 0.183333 0.598713
57 1 0.871773 0.433333 0.59873
61 1 0.871773 0.933333 0.59873
58 1 0.00280372 0.683333 0.631451
59 1 0.502578 0.433333 0.631449
62 1 0.00280372 0.183333 0.631451
63 1 0.502578 0.933333 0.631449
60 1 0.371965 0.683333 0.664249
64 1 0.371965 0.183333 0.664249
65 1 0.87158 0.433333 0.664107
69 1 0.87158 0.933333 0.664107
66 1 0.00207867 0.683333 0.696745
67 1 0.503324 0.433333 0.697059
70 1 0.00207867 0.183333 0.696745
71 1 0.503324 0.933333 0.697059
68 1 0.367415 0.683333 0.729186
72 1 0.367415 0.183333 0.729186
73 1 0.875288 0.433333 0.72977
77 1 0.875288 0.933333 0.72977
74 1 0 0.683333 0.764068
75 1 0.501436 0.433333 0.759866
78 1 0 0.183333 0.764068
79 1 0.501436 0.933333 0.759866
76 1 0.5 0.683333 0.790877
80 1 0.5 0.183333 0.790877
