ITEM: TIMESTEP
872
ITEM: NUMBER OF ATOMS
80
ITEM: BOX BOUNDS pp pp pp
0.0000000000000000e+00 5.6825487348095471e+00
0.0000000000000000e+00 7.1176886540000002e+00
0.0000000000000000e+00 7.6640963165803498e+01
ITEM: ATOMS id type xs ys zs
1 1 0 0 0
2 1 1 0.25 0.0298381
5 1 0 0.5 0
6 1 1 0.75 0.0298381
3 1 0.379583 3.54825e-05 0.177155
7 1 0.379583 0.499965 0.177155
4 1 0.371121 0.25 0.207715
8 1 0.371125 0.75 0.207712
9 1 0.872585 1.44325e-05 0.202187
13 1 0.872585 0.499986 0.202187
10 1 0.998558 0.25 0.237087
11 1 0.508938 0.999993 0.237841
14 1 0.998565 0.75 0.237086
15 1 0.508938 0.500007 0.237841
12 1 0.370932 0.25 0.269753
16 1 0.370928 0.75 0.269754
17 1 0.872594 0.999996 0.270175
18 1 0.00298213 0.25 0.302777
19 1 0.502471 3.95406e-07 0.30259
21 1 0.872594 0.500004 0.270175
22 1 0.00298131 0.75 0.302778
23 1 0.502471 0.5 0.30259
20 1 0.37193 0.25 0.335412
24 1 0.371931 0.75 0.335412
25 1 0.871633 1.23872e-06 0.335409
29 1 0.871633 0.499999 0.335409
26 1 0.00270522 0.25 0.368127
27 1 0.502693 2.29395e-07 0.368149
30 1 0.00270502 0.75 0.368127
31 1 0.502693 0.5 0.368149
28 1 0.371773 0.25 0.400869
32 1 0.371772 0.75 0.400869
33 1 0.871804 1 0.400864
37 1 0.871804 0.5 0.400864
34 1 0.00269307 0.25 0.433594
35 1 0.502702 1 0.433593
38 1 0.00269323 0.75 0.433594
39 1 0.502702 0.5 0.433593
36 1 0.3718 0.25 0.466351
40 1 0.3718 0.75 0.466351
41 1 0.871798 4.20845e-08 0.466352
45 1 0.871798 0.5 0.466352
42 1 0.00269917 0.65 0.500506
43 1 0.502697 0.4 0.500506
46 1 0.0026991 0.15 0.500506
47 1 0.502697 0.9 0.500506
44 1 0.371776 0.65 0.533265
48 1 0.371776 0.15 0.533265
49 1 0.871783 0.4 0.533264
50 1 0.00267534 0.65 0.565994
51 1 0.502698 0.4 0.56599
53 1 0.871783 0.9 0.533264
54 1 0.00267536 0.15 0.565994
55 1 0.502698 0.9 0.56599
52 1 0.371784 0.65 0.598712
56 1 0.371784 0.15 0.598712
57 1 0.871773 0.4 0.598729
61 1 0.871773 0.9 0.598729
58 1 0.00280372 0.65 0.631449
59 1 0.502578 0.4 0.631448
62 1 0.00280372 0.15 0.631449
63 1 0.502578 0.9 0.631448
60 1 0.371965 0.65 0.664248
64 1 0.371965 0.15 0.664248
65 1 0.87158 0.4 0.664105
69 1 0.87158 0.9 0.664105
66 1 0.00207867 0.65 0.696744
67 1 0.503324 0.4 0.697058
70 1 0.00207867 0.15 0.696744
71 1 0.503324 0.9 0.697058
68 1 0.367415 0.65 0.729186
72 1 0.367415 0.15 0.729186
73 1 0.875288 0.4 0.729769
77 1 0.875288 0.9 0.729769
74 1 0 0.65 0.764068
75 1 0.501436 0.4 0.759866
78 1 0 0.15 0.764068
79 1 0.501436 0.9 0.759866
76 1 0.5 0.65 0.790877
80 1 0.5 0.15 0.790877
