ITEM: TIMESTEP
308
ITEM: NUMBER OF ATOMS
80
ITEM: BOX BOUNDS pp pp pp
0.0000000000000000e+00 4.6533240000000005e+00
0.0000000000000000e+00 5.8680000000000003e+00
0.0000000000000000e+00 6.5818347000000017e+01
ITEM: ATOMS id type xs ys zs
1 1 8.95674e-10 1.2528e-12 0
2 1 1.71514e-09 0.25 0.0352685
3 1 0.5 1 0.0224927
5 1 7.48574e-10 0.5 0
6 1 1.71514e-09 0.75 0.0352685
7 1 0.5 0.5 0.0224927
4 1 0.5 0.25 0.0616431
8 1 0.5 0.75 0.0616431
9 1 1 1 0.0749587
11 1 0.5 3.51154e-14 0.100166
13 1 1 0.5 0.0749587
15 1 0.5 0.5 0.100166
10 1 1 0.25 0.11336
12 1 0.5 0.25 0.139062
14 1 1 0.75 0.11336
16 1 0.5 0.75 0.139062
17 1 1 1 0.152118
21 1 1 0.5 0.152118
18 1 1.47122e-12 0.25 0.190841
19 1 0.5 5.60219e-15 0.177786
20 1 0.5 0.25 0.216517
22 1 1.47108e-12 0.75 0.190841
23 1 0.5 0.5 0.177786
24 1 0.5 0.75 0.216517
25 1 1 1.16538e-15 0.229601
26 1 1 0.25 0.268402
27 1 0.5 1.36224e-15 0.255223
29 1 4.12409e-14 0.5 0.229601
30 1 1 0.75 0.268402
31 1 0.5 0.5 0.255223
28 1 0.5 0.25 0.293892
32 1 0.5 0.75 0.293892
33 1 1 6.05439e-16 0.30729
37 1 1 0.5 0.30729
35 1 0.5 1 0.33257
39 1 0.5 0.5 0.33257
34 1 1.66118e-15 0.25 0.346614
36 1 0.5 0.25 0.370536
38 1 1.62584e-15 0.75 0.346614
40 1 0.5 0.75 0.370536
41 1 9.23124e-15 3.02719e-16 0.385258
45 1 9.2077e-15 0.5 0.385258
42 1 3.11442e-14 0.6 0.425896
43 1 0.5 0.35 0.411175
46 1 3.10152e-14 0.1 0.425896
47 1 0.5 0.85 0.411175
44 1 0.5 0.6 0.449819
48 1 0.5 0.1 0.449819
49 1 1 0.35 0.463862
51 1 0.5 0.35 0.489145
53 1 1 0.85 0.463862
55 1 0.5 0.85 0.489145
50 1 1 0.6 0.502537
52 1 0.5 0.6 0.528035
54 1 1 0.1 0.502537
56 1 0.5 0.1 0.528035
57 1 6.29841e-12 0.35 0.5412
61 1 6.2987e-12 0.85 0.5412
58 1 4.65126e-11 0.6 0.579896
59 1 0.5 0.35 0.566843
60 1 0.5 0.6 0.605602
62 1 4.65126e-11 0.1 0.579896
63 1 0.5 0.85 0.566843
64 1 0.5 0.1 0.605602
65 1 1 0.35 0.61855
66 1 1 0.6 0.65736
67 1 0.5 0.35 0.644418
69 1 1 0.85 0.61855
70 1 1 0.1 0.65736
71 1 0.5 0.85 0.644418
68 1 0.5 0.6 0.682882
72 1 0.5 0.1 0.682882
73 1 3.64639e-09 0.35 0.695583
77 1 3.64639e-09 0.85 0.695583
75 1 0.5 0.35 0.723158
79 1 0.5 0.85 0.723158
74 1 5.69983e-08 0.6 0.733495
76 1 0.5 0.6 0.759231
78 1 5.69983e-08 0.1 0.733495
80 1 0.5 0.1 0.759231
