ITEM: TIMESTEP
414
ITEM: NUMBER OF ATOMS
80
ITEM: BOX BOUNDS pp pp pp
0.0000000000000000e+00 4.6533240000000005e+00
0.0000000000000000e+00 5.8680000000000003e+00
0.0000000000000000e+00 6.5818347000000017e+01
ITEM: ATOMS id type xs ys zs
1 1 8.95674e-10 1.2528e-12 0
2 1 1.71514e-09 0.25 0.0353405
3 1 0.5 1 0.0225711
5 1 7.48574e-10 0.5 0
6 1 1.71514e-09 0.75 0.0353405
7 1 0.5 0.5 0.0225711
4 1 0.5 0.25 0.061774
8 1 0.5 0.75 0.061774
9 1 1 1 0.0751571
11 1 0.5 3.51154e-14 0.100379
13 1 1 0.5 0.0751571
15 1 0.5 0.5 0.100379
10 1 1 0.25 0.113661
12 1 0.5 0.25 0.139365
14 1 1 0.75 0.113661
16 1 0.5 0.75 0.139365
17 1 1 1 0.15251
21 1 1 0.5 0.15251
18 1 1.47122e-12 0.25 0.191316
19 1 0.5 5.60219e-15 0.178189
20 1 0.5 0.25 0.217023
22 1 1.47108e-12 0.75 0.191316
23 1 0.5 0.5 0.178189
24 1 0.5 0.75 0.217023
25 1 1 1.16538e-15 0.230135
26 1 1 0.25 0.268956
27 1 0.5 1.36224e-15 0.255849
29 1 4.12409e-14 0.5 0.230135
30 1 1 0.75 0.268956
31 1 0.5 0.5 0.255849
28 1 0.5 0.25 0.29467
32 1 0.5 0.75 0.29467
33 1 1 6.05439e-16 0.307774
37 1 1 0.5 0.307774
35 1 0.5 1 0.333494
39 1 0.5 0.5 0.333494
34 1 1.66118e-15 0.25 0.346623
36 1 0.5 0.25 0.372299
38 1 1.62584e-15 0.75 0.346623
40 1 0.5 0.75 0.372299
41 1 9.23124e-15 3.02719e-16 0.385319
45 1 9.2077e-15 0.5 0.385319
42 1 3.11442e-14 0.716667 0.424242
43 1 0.5 0.466667 0.411223
46 1 3.10152e-14 0.216667 0.424242
47 1 0.5 0.966667 0.411223
44 1 0.5 0.716667 0.44992
48 1 0.5 0.216667 0.44992
49 1 1 0.466667 0.463046
51 1 0.5 0.466667 0.48877
53 1 1 0.966667 0.463046
55 1 0.5 0.966667 0.48877
50 1 1 0.716667 0.501867
52 1 0.5 0.716667 0.52759
54 1 1 0.216667 0.501867
56 1 0.5 0.216667 0.52759
57 1 6.29841e-12 0.466667 0.540683
61 1 6.2987e-12 0.966667 0.540683
58 1 4.65126e-11 0.716667 0.5795
59 1 0.5 0.466667 0.566418
60 1 0.5 0.716667 0.605235
62 1 4.65126e-11 0.216667 0.5795
63 1 0.5 0.966667 0.566418
64 1 0.5 0.216667 0.605235
65 1 1 0.466667 0.618255
66 1 1 0.716667 0.657162
67 1 0.5 0.466667 0.64414
69 1 1 0.966667 0.618255
70 1 1 0.216667 0.657162
71 1 0.5 0.966667 0.64414
68 1 0.5 0.716667 0.682685
72 1 0.5 0.216667 0.682685
73 1 3.64639e-09 0.466667 0.695473
77 1 3.64639e-09 0.966667 0.695473
75 1 0.5 0.466667 0.723094
79 1 0.5 0.966667 0.723094
74 1 5.69983e-08 0.716667 0.733495
76 1 0.5 0.716667 0.759231
78 1 5.69983e-08 0.216667 0.733495
80 1 0.5 0.216667 0.759231
