ITEM: TIMESTEP
250
ITEM: NUMBER OF ATOMS
80
ITEM: BOX BOUNDS pp pp pp
0.0000000000000000e+00 4.6533240000000005e+00
0.0000000000000000e+00 5.8680000000000003e+00
0.0000000000000000e+00 6.5818347000000017e+01
ITEM: ATOMS id type xs ys zs
1 1 8.95674e-10 1.2528e-12 0
2 1 1.71514e-09 0.25 0.0352293
3 1 0.5 1 0.0224509
5 1 7.48574e-10 0.5 0
6 1 1.71514e-09 0.75 0.0352293
7 1 0.5 0.5 0.0224509
4 1 0.5 0.25 0.0615721
8 1 0.5 0.75 0.0615721
9 1 1 1 0.0748527
11 1 0.5 3.51154e-14 0.100052
13 1 1 0.5 0.0748527
15 1 0.5 0.5 0.100052
10 1 1 0.25 0.113201
12 1 0.5 0.25 0.138899
14 1 1 0.75 0.113201
16 1 0.5 0.75 0.138899
17 1 1 1 0.151909
21 1 1 0.5 0.151909
18 1 1.47122e-12 0.25 0.190591
19 1 0.5 5.60219e-15 0.177569
20 1 0.5 0.25 0.216245
22 1 1.47108e-12 0.75 0.190591
23 1 0.5 0.5 0.177569
24 1 0.5 0.75 0.216245
25 1 1 1.16538e-15 0.229322
26 1 1 0.25 0.26812
27 1 0.5 1.36224e-15 0.254881
29 1 4.12409e-14 0.5 0.229322
30 1 1 0.75 0.26812
31 1 0.5 0.5 0.254881
28 1 0.5 0.25 0.293476
32 1 0.5 0.75 0.293476
33 1 1 6.05439e-16 0.307093
37 1 1 0.5 0.307093
35 1 0.5 1 0.332024
39 1 0.5 0.5 0.332024
34 1 1.66118e-15 0.25 0.346565
36 1 0.5 0.25 0.369711
38 1 1.62584e-15 0.75 0.346565
40 1 0.5 0.75 0.369711
41 1 9.23124e-15 3.02719e-16 0.386148
45 1 9.2077e-15 0.5 0.386148
42 1 3.11442e-14 0.55 0.426656
43 1 0.5 0.3 0.41022
46 1 3.10152e-14 0.05 0.426656
47 1 0.5 0.8 0.41022
44 1 0.5 0.55 0.449803
48 1 0.5 0.05 0.449803
49 1 1 0.3 0.464343
51 1 0.5 0.3 0.489276
53 1 1 0.8 0.464343
55 1 0.5 0.8 0.489276
50 1 1 0.55 0.502888
52 1 0.5 0.55 0.528253
54 1 1 0.05 0.502888
56 1 0.5 0.05 0.528253
57 1 6.29841e-12 0.3 0.541477
61 1 6.2987e-12 0.8 0.541477
58 1 4.65126e-11 0.55 0.580103
59 1 0.5 0.3 0.567055
60 1 0.5 0.55 0.605787
62 1 4.65126e-11 0.05 0.580103
63 1 0.5 0.8 0.567055
64 1 0.5 0.05 0.605787
65 1 1 0.3 0.618703
66 1 1 0.55 0.657462
67 1 0.5 0.3 0.644559
69 1 1 0.8 0.618703
70 1 1 0.05 0.657462
71 1 0.5 0.8 0.644559
68 1 0.5 0.55 0.682982
72 1 0.5 0.05 0.682982
73 1 3.64639e-09 0.3 0.695639
77 1 3.64639e-09 0.8 0.695639
75 1 0.5 0.3 0.723191
79 1 0.5 0.8 0.723191
74 1 5.69983e-08 0.55 0.733495
76 1 0.5 0.55 0.759231
78 1 5.69983e-08 0.05 0.733495
80 1 0.5 0.05 0.759231
