ITEM: TIMESTEP
663
ITEM: NUMBER OF ATOMS
80
ITEM: BOX BOUNDS pp pp pp
0.0000000000000000e+00 5.6825487348095471e+00
0.0000000000000000e+00 7.1176886540000002e+00
0.0000000000000000e+00 7.6640963165803498e+01
ITEM: ATOMS id type xs ys zs
1 1 0 0 0
2 1 1 0.25 0.0298381
5 1 0 0.5 0
6 1 1 0.75 0.0298381
3 1 0.379583 3.54825e-05 0.174013
7 1 0.379583 0.499965 0.174013
4 1 0.371121 0.25 0.204573
8 1 0.371125 0.75 0.20457
9 1 0.872585 1.44325e-05 0.199045
13 1 0.872585 0.499986 0.199045
10 1 0.998558 0.25 0.233944
11 1 0.508938 0.999993 0.234698
14 1 0.998565 0.75 0.233943
15 1 0.508938 0.500007 0.234698
12 1 0.370932 0.25 0.266609
16 1 0.370928 0.75 0.26661
17 1 0.872594 0.999996 0.267031
18 1 0.00298213 0.25 0.299632
19 1 0.502471 3.95406e-07 0.299445
21 1 0.872594 0.500004 0.267031
22 1 0.00298131 0.75 0.299632
23 1 0.502471 0.5 0.299445
20 1 0.37193 0.25 0.332265
24 1 0.371931 0.75 0.332265
25 1 0.871633 1.23872e-06 0.332263
29 1 0.871633 0.499999 0.332263
26 1 0.00270522 0.25 0.36498
27 1 0.502693 2.29395e-07 0.365002
30 1 0.00270502 0.75 0.36498
31 1 0.502693 0.5 0.365002
28 1 0.371773 0.25 0.39772
32 1 0.371772 0.75 0.39772
33 1 0.871804 1 0.397715
37 1 0.871804 0.5 0.397715
34 1 0.00269307 0.25 0.43044
35 1 0.502702 1 0.430439
38 1 0.00269323 0.75 0.43044
39 1 0.502702 0.5 0.430439
36 1 0.3718 0.25 0.463358
40 1 0.3718 0.75 0.463358
41 1 0.871798 4.20845e-08 0.463358
45 1 0.871798 0.5 0.463358
42 1 0.00269917 0.5 0.500362
43 1 0.502697 0.25 0.500362
46 1 0.0026991 1 0.500362
47 1 0.502697 0.75 0.500362
44 1 0.371776 0.5 0.533281
48 1 0.371776 2.12134e-15 0.533281
49 1 0.871783 0.25 0.53328
50 1 0.00267534 0.5 0.566004
51 1 0.502698 0.25 0.566
53 1 0.871783 0.75 0.53328
54 1 0.00267536 1 0.566004
55 1 0.502698 0.75 0.566
52 1 0.371784 0.5 0.598721
56 1 0.371784 1 0.598721
57 1 0.871773 0.25 0.598738
61 1 0.871773 0.75 0.598738
58 1 0.00280372 0.5 0.631457
59 1 0.502578 0.25 0.631456
62 1 0.00280372 1 0.631457
63 1 0.502578 0.75 0.631456
60 1 0.371965 0.5 0.664254
64 1 0.371965 1 0.664254
65 1 0.87158 0.25 0.664111
69 1 0.87158 0.75 0.664111
66 1 0.00207867 0.5 0.696748
67 1 0.503324 0.25 0.697062
70 1 0.00207867 1 0.696748
71 1 0.503324 0.75 0.697062
68 1 0.367415 0.5 0.729188
72 1 0.367415 1 0.729188
73 1 0.875288 0.25 0.729772
77 1 0.875288 0.75 0.729772
74 1 0 0.5 0.764068
75 1 0.501436 0.25 0.759867
78 1 0 1 0.764068
79 1 0.501436 0.75 0.759867
76 1 0.5 0.5 0.790877
80 1 0.5 1 0.790877
