ITEM: TIMESTEP
269
ITEM: NUMBER OF ATOMS
80
ITEM: BOX BOUNDS pp pp pp
0.0000000000000000e+00 4.6533240000000005e+00
0.0000000000000000e+00 5.8680000000000003e+00
0.0000000000000000e+00 6.5818347000000017e+01
ITEM: ATOMS id type xs ys zs
1 1 8.95674e-10 1.2528e-12 0
2 1 1.71514e-09 0.25 0.0352385
3 1 0.5 1 0.0224606
5 1 7.48574e-10 0.5 0
6 1 1.71514e-09 0.75 0.0352385
7 1 0.5 0.5 0.0224606
4 1 0.5 0.25 0.0615889
8 1 0.5 0.75 0.0615889
9 1 1 1 0.0748777
11 1 0.5 3.51154e-14 0.100079
13 1 1 0.5 0.0748777
15 1 0.5 0.5 0.100079
10 1 1 0.25 0.113238
12 1 0.5 0.25 0.138937
14 1 1 0.75 0.113238
16 1 0.5 0.75 0.138937
17 1 1 1 0.151957
21 1 1 0.5 0.151957
18 1 1.47122e-12 0.25 0.190648
19 1 0.5 5.60219e-15 0.17762
20 1 0.5 0.25 0.216309
22 1 1.47108e-12 0.75 0.190648
23 1 0.5 0.5 0.17762
24 1 0.5 0.75 0.216309
25 1 1 1.16538e-15 0.229384
26 1 1 0.25 0.268178
27 1 0.5 1.36224e-15 0.254962
29 1 4.12409e-14 0.5 0.229384
30 1 1 0.75 0.268178
31 1 0.5 0.5 0.254962
28 1 0.5 0.25 0.293576
32 1 0.5 0.75 0.293576
33 1 1 6.05439e-16 0.307123
37 1 1 0.5 0.307123
35 1 0.5 1 0.332162
39 1 0.5 0.5 0.332162
34 1 1.66118e-15 0.25 0.346548
36 1 0.5 0.25 0.369917
38 1 1.62584e-15 0.75 0.346548
40 1 0.5 0.75 0.369917
41 1 9.23124e-15 3.02719e-16 0.385821
45 1 9.2077e-15 0.5 0.385821
42 1 3.11442e-14 0.566667 0.426469
43 1 0.5 0.316667 0.410565
46 1 3.10152e-14 0.0666667 0.426469
47 1 0.5 0.816667 0.410565
44 1 0.5 0.566667 0.449839
48 1 0.5 0.0666667 0.449839
49 1 1 0.316667 0.464223
51 1 0.5 0.316667 0.489265
53 1 1 0.816667 0.464223
55 1 0.5 0.816667 0.489265
50 1 1 0.566667 0.502806
52 1 0.5 0.566667 0.528212
54 1 1 0.0666667 0.502806
56 1 0.5 0.0666667 0.528212
57 1 6.29841e-12 0.316667 0.541414
61 1 6.2987e-12 0.816667 0.541414
58 1 4.65126e-11 0.566667 0.580058
59 1 0.5 0.316667 0.567012
60 1 0.5 0.566667 0.605749
62 1 4.65126e-11 0.0666667 0.580058
63 1 0.5 0.816667 0.567012
64 1 0.5 0.0666667 0.605749
65 1 1 0.316667 0.61867
66 1 1 0.566667 0.657441
67 1 0.5 0.316667 0.64453
69 1 1 0.816667 0.61867
70 1 1 0.0666667 0.657441
71 1 0.5 0.816667 0.64453
68 1 0.5 0.566667 0.682961
72 1 0.5 0.0666667 0.682961
73 1 3.64639e-09 0.316667 0.695628
77 1 3.64639e-09 0.816667 0.695628
75 1 0.5 0.316667 0.723185
79 1 0.5 0.816667 0.723185
74 1 5.69983e-08 0.566667 0.733495
76 1 0.5 0.566667 0.759231
78 1 5.69983e-08 0.0666667 0.733495
80 1 0.5 0.0666667 0.759231
