ITEM: TIMESTEP
313
ITEM: NUMBER OF ATOMS
80
ITEM: BOX BOUNDS pp pp pp
0.0000000000000000e+00 5.6825487348095471e+00
0.0000000000000000e+00 7.1176886540000002e+00
0.0000000000000000e+00 7.6640963165803498e+01
ITEM: ATOMS id type xs ys zs
1 1 0 0 0
2 1 1 0.25 0.0298381
5 1 0 0.5 0
6 1 1 0.75 0.0298381
3 1 0.379583 3.54825e-05 0.178582
7 1 0.379583 0.499965 0.178582
4 1 0.371121 0.25 0.209143
8 1 0.371125 0.75 0.20914
9 1 0.872585 1.44325e-05 0.203615
13 1 0.872585 0.499986 0.203615
10 1 0.998558 0.25 0.238515
11 1 0.508938 0.999993 0.239268
14 1 0.998565 0.75 0.238513
15 1 0.508938 0.500007 0.239268
12 1 0.370932 0.25 0.271181
16 1 0.370928 0.75 0.271182
17 1 0.872594 0.999996 0.271603
18 1 0.00298213 0.25 0.304205
19 1 0.502471 3.95406e-07 0.304018
21 1 0.872594 0.500004 0.271603
22 1 0.00298131 0.75 0.304206
23 1 0.502471 0.5 0.304018
20 1 0.37193 0.25 0.33684
24 1 0.371931 0.75 0.33684
25 1 0.871633 1.23872e-06 0.336837
29 1 0.871633 0.499999 0.336837
26 1 0.00270522 0.25 0.369556
27 1 0.502693 2.29395e-07 0.369578
28 1 0.371773 0.25 0.402298
30 1 0.00270502 0.75 0.369556
31 1 0.502693 0.5 0.369578
32 1 0.371772 0.75 0.402298
33 1 0.871804 1 0.402293
37 1 0.871804 0.5 0.402293
34 1 0.00269307 0.25 0.435024
35 1 0.502702 1 0.435023
38 1 0.00269323 0.75 0.435024
39 1 0.502702 0.5 0.435023
36 1 0.3718 0.25 0.467745
40 1 0.3718 0.75 0.467745
41 1 0.871798 4.20845e-08 0.467746
45 1 0.871798 0.5 0.467746
42 1 0.00269917 0.266667 0.500545
43 1 0.502697 0.0166667 0.500545
46 1 0.0026991 0.766667 0.500545
47 1 0.502697 0.516667 0.500545
44 1 0.371776 0.266667 0.533267
48 1 0.371776 0.766667 0.533267
49 1 0.871783 0.0166667 0.533266
50 1 0.00267534 0.266667 0.565997
51 1 0.502698 0.0166667 0.565993
53 1 0.871783 0.516667 0.533266
54 1 0.00267536 0.766667 0.565997
55 1 0.502698 0.516667 0.565993
52 1 0.371784 0.266667 0.598715
56 1 0.371784 0.766667 0.598715
57 1 0.871773 0.0166667 0.598732
61 1 0.871773 0.516667 0.598732
58 1 0.00280372 0.266667 0.631452
59 1 0.502578 0.0166667 0.631451
62 1 0.00280372 0.766667 0.631452
63 1 0.502578 0.516667 0.631451
60 1 0.371965 0.266667 0.66425
64 1 0.371965 0.766667 0.66425
65 1 0.87158 0.0166667 0.664107
69 1 0.87158 0.516667 0.664107
66 1 0.00207867 0.266667 0.696745
67 1 0.503324 0.0166667 0.697059
70 1 0.00207867 0.766667 0.696745
71 1 0.503324 0.516667 0.697059
68 1 0.367415 0.266667 0.729186
72 1 0.367415 0.766667 0.729186
73 1 0.875288 0.0166667 0.72977
77 1 0.875288 0.516667 0.72977
74 1 0 0.266667 0.764068
75 1 0.501436 0.0166667 0.759866
78 1 0 0.766667 0.764068
79 1 0.501436 0.516667 0.759866
76 1 0.5 0.266667 0.790877
80 1 0.5 0.766667 0.790877
