ITEM: TIMESTEP
140
ITEM: NUMBER OF ATOMS
80
ITEM: BOX BOUNDS pp pp pp
0.0000000000000000e+00 3.5588443270000001e+00
0.0000000000000000e+00 1.2328192633160700e+01
0.0000000000000000e+00 9.8804255508626724e+01
ITEM: ATOMS id type xs ys zs
1 1 0 0 0
2 1 0 0.166667 0.0235035
3 1 0.5 0.25 0
4 1 0.5 0.416667 0.0235035
5 1 0 0.5 0
6 1 2.05329e-17 0.666667 0.0235035
7 1 0.5 0.75 0
8 1 0.5 0.916667 0.0235035
11 1 0.5 0.25 0.0475329
10 1 1 0.166667 0.0717263
13 1 1 0.5 0.0475329
12 1 0.5 0.416667 0.0717263
14 1 3.33179e-17 0.666667 0.0717263
9 1 1 1 0.0475329
15 1 0.5 0.75 0.0475329
16 1 0.5 0.916667 0.0717263
19 1 0.5 0.25 0.095938
21 1 1 0.5 0.095938
17 1 0 1 0.095938
23 1 0.5 0.75 0.095938
18 1 1 0.166666 0.120151
27 1 0.5 0.25 0.144362
20 1 0.5 0.416666 0.120151
22 1 1 0.666666 0.120151
29 1 1 0.5 0.144362
24 1 0.5 0.916666 0.120151
25 1 0 1 0.144362
31 1 0.5 0.75 0.144362
26 1 1 0.166666 0.168555
35 1 0.5 0.25 0.192584
28 1 0.5 0.416666 0.168555
30 1 1 0.666666 0.168555
37 1 1 0.5 0.192584
33 1 1 1 0.192584
32 1 0.5 0.916666 0.168555
39 1 0.5 0.75 0.192584
34 1 1 0.166666 0.216088
36 1 0.5 0.416666 0.216088
38 1 1 0.666666 0.216088
40 1 0.5 0.916666 0.216088
48 1 0.5 0.266666 0.353791
47 1 0.5 0.0999995 0.330288
46 1 1 0.0166663 0.353791
41 1 1 0.35 0.330288
42 1 1 0.516666 0.353791
43 1 0.5 0.6 0.330288
44 1 0.5 0.766666 0.353791
45 1 0 0.85 0.330288
55 1 0.5 0.0999995 0.37782
49 1 1 0.35 0.37782
51 1 0.5 0.6 0.37782
53 1 1 0.85 0.37782
56 1 0.5 0.266666 0.402013
63 1 0.5 0.0999994 0.426225
54 1 1 0.0166662 0.402013
57 1 1 0.349999 0.426225
50 1 0 0.516666 0.402013
59 1 0.5 0.599999 0.426225
52 1 0.5 0.766666 0.402013
61 1 4.04156e-17 0.849999 0.426225
64 1 0.5 0.266666 0.450437
71 1 0.5 0.0999993 0.474649
62 1 1 0.0166661 0.450437
65 1 0 0.349999 0.474649
58 1 0 0.516666 0.450437
67 1 0.5 0.599999 0.474649
60 1 0.5 0.766666 0.450437
69 1 1 0.849999 0.474649
72 1 0.5 0.266666 0.498843
70 1 1.70968e-17 0.016666 0.498843
66 1 0 0.516666 0.498843
68 1 0.5 0.766666 0.498843
80 1 0.5 0.266665 0.546375
79 1 0.5 0.0999992 0.522872
78 1 0 0.0166667 0.546375
73 1 1.80855e-16 0.349999 0.522872
74 1 0 0.516667 0.546375
75 1 0.5 0.599999 0.522872
76 1 0.5 0.766665 0.546375
77 1 8.48732e-17 0.849999 0.522872
