ITEM: TIMESTEP
417
ITEM: NUMBER OF ATOMS
80
ITEM: BOX BOUNDS pp pp pp
0.0000000000000000e+00 2.9340000000000002e+00
0.0000000000000000e+00 1.0163669400000002e+01
0.0000000000000000e+00 7.4682691523668808e+01
ITEM: ATOMS id type xs ys zs
1 1 0 0 0
2 1 0 0.166667 0.029067
3 1 0.5 0.25 0
4 1 0.5 0.416667 0.029067
5 1 0 0.5 0
6 1 1 0.666667 0.029067
7 1 0.5 0.75 0
8 1 0.5 0.916667 0.029067
10 1 1 0.166667 0.0917878
11 1 0.5 0.25 0.0608948
12 1 0.5 0.416667 0.0917878
13 1 0 0.5 0.0608948
9 1 1 1 0.0608948
14 1 1 0.666667 0.0917878
15 1 0.5 0.75 0.0608948
16 1 0.5 0.916667 0.0917878
19 1 0.5 0.25 0.122952
21 1 1 0.5 0.122952
17 1 1 1 0.122952
23 1 0.5 0.75 0.122952
18 1 1 0.166666 0.154011
20 1 0.5 0.416667 0.154011
27 1 0.5 0.25 0.18512
29 1 1.40059e-16 0.5 0.18512
25 1 1 1 0.18512
22 1 1 0.666666 0.154011
24 1 0.5 0.916667 0.154011
31 1 0.5 0.75 0.18512
26 1 1 0.166666 0.216201
28 1 0.5 0.416667 0.216201
35 1 0.5 0.25 0.247298
37 1 1 0.499999 0.247298
33 1 1 0.999999 0.247298
30 1 1.5136e-16 0.666666 0.216201
32 1 0.5 0.916667 0.216201
39 1 0.5 0.75 0.247298
34 1 2.89664e-16 0.166666 0.277964
36 1 0.5 0.416667 0.277964
38 1 1 0.666666 0.277964
40 1 0.5 0.916667 0.277964
42 1 1 0.433333 0.341614
41 1 1 0.266666 0.310948
48 1 0.5 0.183333 0.341614
47 1 0.5 0.0166665 0.310948
43 1 0.5 0.516667 0.310948
44 1 0.5 0.683333 0.341614
45 1 1.5136e-16 0.766666 0.310948
46 1 1 0.933333 0.341614
49 1 3.55317e-16 0.266666 0.372711
55 1 0.5 0.0166663 0.372711
51 1 0.5 0.516666 0.372711
53 1 1 0.766666 0.372711
50 1 3.02719e-16 0.433333 0.403792
57 1 1 0.266666 0.4349
56 1 0.5 0.183333 0.403792
63 1 0.5 0.0166665 0.4349
59 1 0.5 0.516667 0.4349
52 1 0.5 0.683333 0.403792
61 1 1 0.766666 0.4349
54 1 1 0.933333 0.403792
58 1 0 0.433333 0.465959
65 1 1 0.266667 0.497123
64 1 0.5 0.183333 0.465959
71 1 0.5 0.0166661 0.497123
67 1 0.5 0.516666 0.497123
60 1 0.5 0.683333 0.465959
62 1 1 0.933333 0.465959
69 1 1 0.766667 0.497123
66 1 0 0.433334 0.528017
72 1 0.5 0.183333 0.528017
68 1 0.5 0.683333 0.528017
70 1 0 0.933334 0.528017
74 1 1.5017e-16 0.433334 0.588912
73 1 0 0.266667 0.559845
80 1 0.5 0.183333 0.588912
79 1 0.5 0.0166667 0.559845
75 1 0.5 0.516667 0.559845
76 1 0.5 0.683333 0.588912
77 1 0 0.766667 0.559845
78 1 8.66974e-17 0.933334 0.588912
