ITEM: TIMESTEP
29
ITEM: NUMBER OF ATOMS
80
ITEM: BOX BOUNDS pp pp pp
0.0000000000000000e+00 3.5588443270000001e+00
0.0000000000000000e+00 1.2328192633160700e+01
0.0000000000000000e+00 9.8804255508626724e+01
ITEM: ATOMS id type xs ys zs
1 1 0 0 0
2 1 0 0.166667 0.0282967
3 1 0.5 0.25 0
4 1 0.5 0.416667 0.0282967
5 1 0 0.5 0
6 1 2.05329e-17 0.666667 0.0282967
7 1 0.5 0.75 0
8 1 0.5 0.916667 0.0282967
11 1 0.5 0.25 0.0570635
13 1 1 0.5 0.0570635
9 1 1 1 0.0570635
15 1 0.5 0.75 0.0570635
10 1 1 0.166667 0.0858223
19 1 0.5 0.25 0.114581
12 1 0.5 0.416667 0.0858223
14 1 3.33179e-17 0.666667 0.0858223
21 1 1 0.5 0.114581
17 1 0 1 0.114581
16 1 0.5 0.916667 0.0858223
23 1 0.5 0.75 0.114581
18 1 1 0.166666 0.14334
20 1 0.5 0.416666 0.14334
22 1 1 0.666666 0.14334
24 1 0.5 0.916666 0.14334
27 1 0.5 0.25 0.172098
29 1 1 0.5 0.172098
25 1 0 1 0.172098
31 1 0.5 0.75 0.172098
26 1 1 0.166666 0.200857
35 1 0.5 0.25 0.229616
28 1 0.5 0.416666 0.200857
30 1 1 0.666666 0.200857
37 1 1 0.5 0.229616
33 1 1 1 0.229616
32 1 0.5 0.916666 0.200857
39 1 0.5 0.75 0.229616
34 1 1 0.166666 0.258377
36 1 0.5 0.416666 0.258377
38 1 1 0.666666 0.258377
40 1 0.5 0.916666 0.258377
42 1 1 0.183333 0.31676
43 1 0.5 0.266666 0.287998
41 1 1 0.0166662 0.287998
44 1 0.5 0.433333 0.31676
45 1 0 0.516666 0.287998
46 1 1 0.683333 0.31676
47 1 0.5 0.766666 0.287998
48 1 0.5 0.933333 0.31676
51 1 0.5 0.266666 0.345519
49 1 1 0.0166662 0.345519
53 1 1 0.516666 0.345519
55 1 0.5 0.766666 0.345519
50 1 0 0.183333 0.374277
52 1 0.5 0.433333 0.374277
54 1 1 0.683333 0.374277
56 1 0.5 0.933333 0.374277
58 1 0 0.183333 0.431794
59 1 0.5 0.266666 0.403036
57 1 1 0.0166661 0.403036
60 1 0.5 0.433333 0.431794
61 1 4.04156e-17 0.516666 0.403036
62 1 1 0.683333 0.431794
63 1 0.5 0.766666 0.403036
64 1 0.5 0.933333 0.431794
67 1 0.5 0.266666 0.460553
65 1 0 0.016666 0.460553
69 1 1 0.516666 0.460553
71 1 0.5 0.766666 0.460553
66 1 0 0.183333 0.489312
75 1 0.5 0.266666 0.518079
73 1 1.80855e-16 0.0166657 0.518079
68 1 0.5 0.433333 0.489312
77 1 8.48732e-17 0.516666 0.518079
70 1 1.70968e-17 0.683333 0.489312
72 1 0.5 0.933333 0.489312
79 1 0.5 0.766666 0.518079
74 1 0 0.183333 0.546375
76 1 0.5 0.433332 0.546375
78 1 0 0.683333 0.546375
80 1 0.5 0.933332 0.546375
