ITEM: TIMESTEP
205
ITEM: NUMBER OF ATOMS
80
ITEM: BOX BOUNDS pp pp pp
0.0000000000000000e+00 2.9340000000000002e+00
0.0000000000000000e+00 1.0163669400000002e+01
0.0000000000000000e+00 7.4682691523668808e+01
ITEM: ATOMS id type xs ys zs
1 1 0 0 0
2 1 0 0.166667 0.029067
3 1 0.5 0.25 0
4 1 0.5 0.416667 0.029067
5 1 0 0.5 0
6 1 1 0.666667 0.029067
7 1 0.5 0.75 0
8 1 0.5 0.916667 0.029067
10 1 1 0.166667 0.0917879
11 1 0.5 0.25 0.060895
12 1 0.5 0.416667 0.0917878
13 1 0 0.5 0.060895
9 1 1 1 0.060895
14 1 1 0.666667 0.0917879
15 1 0.5 0.75 0.060895
16 1 0.5 0.916667 0.0917878
19 1 0.5 0.25 0.122953
21 1 1 0.5 0.122953
17 1 1 1 0.122953
23 1 0.5 0.75 0.122953
18 1 1 0.166666 0.154008
20 1 0.5 0.416667 0.154008
27 1 0.5 0.25 0.185125
29 1 1.40059e-16 0.5 0.185125
25 1 1 1 0.185125
22 1 1 0.666666 0.154008
24 1 0.5 0.916667 0.154008
31 1 0.5 0.75 0.185125
26 1 1 0.166666 0.216194
28 1 0.5 0.416667 0.216194
35 1 0.5 0.25 0.247367
37 1 1 0.499999 0.247367
33 1 1 0.999999 0.247367
30 1 1.5136e-16 0.666666 0.216194
32 1 0.5 0.916667 0.216194
39 1 0.5 0.75 0.247367
34 1 2.89664e-16 0.166666 0.277767
36 1 0.5 0.416667 0.277767
38 1 1 0.666666 0.277767
40 1 0.5 0.916667 0.277767
42 1 1 0.283333 0.342533
43 1 0.5 0.366667 0.312133
41 1 1 0.116666 0.312133
48 1 0.5 0.0333332 0.342533
44 1 0.5 0.533333 0.342533
45 1 1.5136e-16 0.616666 0.312133
46 1 1 0.783333 0.342533
47 1 0.5 0.866667 0.312133
51 1 0.5 0.366666 0.373706
49 1 3.55317e-16 0.116666 0.373706
53 1 1 0.616666 0.373706
55 1 0.5 0.866666 0.373706
50 1 3.02719e-16 0.283333 0.404775
59 1 0.5 0.366667 0.435892
57 1 1 0.116666 0.435892
56 1 0.5 0.0333331 0.404775
52 1 0.5 0.533333 0.404775
61 1 1 0.616666 0.435892
54 1 1 0.783333 0.404775
63 1 0.5 0.866667 0.435892
58 1 0 0.283333 0.466948
65 1 1 0.116667 0.498114
67 1 0.5 0.366666 0.498114
64 1 0.5 0.0333332 0.466948
60 1 0.5 0.533333 0.466948
62 1 1 0.783333 0.466948
69 1 1 0.616667 0.498114
71 1 0.5 0.866666 0.498114
66 1 0 0.283334 0.529007
72 1 0.5 0.0333332 0.529007
68 1 0.5 0.533333 0.529007
70 1 0 0.783334 0.529007
74 1 1.5017e-16 0.283334 0.589903
75 1 0.5 0.366667 0.560836
73 1 0 0.116667 0.560836
80 1 0.5 0.0333333 0.589903
76 1 0.5 0.533333 0.589903
77 1 0 0.616667 0.560836
78 1 8.66974e-17 0.783334 0.589903
79 1 0.5 0.866667 0.560836
