ITEM: TIMESTEP
233
ITEM: NUMBER OF ATOMS
80
ITEM: BOX BOUNDS pp pp pp
0.0000000000000000e+00 2.9340000000000002e+00
0.0000000000000000e+00 1.0163669400000002e+01
0.0000000000000000e+00 7.4682691523668808e+01
ITEM: ATOMS id type xs ys zs
1 1 0 0 0
2 1 0 0.166667 0.0290669
3 1 0.5 0.25 0
4 1 0.5 0.416667 0.0290669
5 1 0 0.5 0
6 1 1 0.666667 0.0290669
7 1 0.5 0.75 0
8 1 0.5 0.916667 0.0290669
10 1 1 0.166667 0.0917876
11 1 0.5 0.25 0.0608949
12 1 0.5 0.416667 0.0917876
13 1 0 0.5 0.0608949
9 1 1 1 0.0608949
14 1 1 0.666667 0.0917876
15 1 0.5 0.75 0.0608949
16 1 0.5 0.916667 0.0917876
19 1 0.5 0.25 0.122953
21 1 1 0.5 0.122953
17 1 1 1 0.122953
23 1 0.5 0.75 0.122953
18 1 1 0.166666 0.154007
20 1 0.5 0.416667 0.154007
27 1 0.5 0.25 0.185125
29 1 1.40059e-16 0.5 0.185125
25 1 1 1 0.185125
22 1 1 0.666666 0.154007
24 1 0.5 0.916667 0.154007
31 1 0.5 0.75 0.185125
26 1 1 0.166666 0.216193
28 1 0.5 0.416667 0.216193
35 1 0.5 0.25 0.247398
37 1 1 0.499999 0.247398
33 1 1 0.999999 0.247398
30 1 1.5136e-16 0.666666 0.216193
32 1 0.5 0.916667 0.216193
39 1 0.5 0.75 0.247398
34 1 2.89664e-16 0.166666 0.277744
36 1 0.5 0.416667 0.277745
38 1 1 0.666666 0.277744
40 1 0.5 0.916667 0.277745
42 1 1 0.299999 0.342969
43 1 0.5 0.383333 0.312622
41 1 1 0.133333 0.312622
48 1 0.5 0.0499999 0.342969
44 1 0.5 0.55 0.342969
45 1 1.5136e-16 0.633333 0.312622
46 1 1 0.799999 0.342969
47 1 0.5 0.883333 0.312622
51 1 0.5 0.383333 0.374174
49 1 3.55317e-16 0.133333 0.374174
53 1 1 0.633333 0.374174
55 1 0.5 0.883333 0.374174
50 1 3.02719e-16 0.3 0.405243
59 1 0.5 0.383333 0.436361
57 1 1 0.133333 0.436361
56 1 0.5 0.0499997 0.405243
52 1 0.5 0.55 0.405243
61 1 1 0.633333 0.436361
54 1 1 0.8 0.405243
63 1 0.5 0.883333 0.436361
58 1 0 0.3 0.467416
65 1 1 0.133334 0.498582
67 1 0.5 0.383333 0.498582
64 1 0.5 0.0499999 0.467416
60 1 0.5 0.55 0.467416
62 1 1 0.8 0.467416
69 1 1 0.633334 0.498582
71 1 0.5 0.883333 0.498582
66 1 0 0.3 0.529475
72 1 0.5 0.0499998 0.529475
68 1 0.5 0.55 0.529475
70 1 0 0.8 0.529475
74 1 1.5017e-16 0.3 0.590371
75 1 0.5 0.383333 0.561304
73 1 0 0.133333 0.561304
80 1 0.5 0.05 0.590371
76 1 0.5 0.55 0.590371
77 1 0 0.633333 0.561304
78 1 8.66974e-17 0.8 0.590371
79 1 0.5 0.883333 0.561304
