ITEM: TIMESTEP
255
ITEM: NUMBER OF ATOMS
80
ITEM: BOX BOUNDS pp pp pp
0.0000000000000000e+00 2.9340000000000002e+00
0.0000000000000000e+00 1.0163669400000002e+01
0.0000000000000000e+00 7.4682691523668808e+01
ITEM: ATOMS id type xs ys zs
1 1 0 0 0
2 1 0 0.166667 0.0290672
3 1 0.5 0.25 0
4 1 0.5 0.416667 0.0290672
5 1 0 0.5 0
6 1 1 0.666667 0.0290672
7 1 0.5 0.75 0
8 1 0.5 0.916667 0.0290672
10 1 1 0.166667 0.0917889
11 1 0.5 0.25 0.0608958
12 1 0.5 0.416667 0.0917889
13 1 0 0.5 0.0608958
9 1 1 1 0.0608958
14 1 1 0.666667 0.0917889
15 1 0.5 0.75 0.0608958
16 1 0.5 0.916667 0.0917889
19 1 0.5 0.25 0.122954
21 1 1 0.5 0.122954
17 1 1 1 0.122954
23 1 0.5 0.75 0.122954
18 1 1 0.166666 0.154007
20 1 0.5 0.416667 0.154007
27 1 0.5 0.25 0.185127
29 1 1.40059e-16 0.5 0.185127
25 1 1 1 0.185127
22 1 1 0.666666 0.154007
24 1 0.5 0.916667 0.154007
31 1 0.5 0.75 0.185127
26 1 1 0.166666 0.216192
28 1 0.5 0.416667 0.216192
35 1 0.5 0.25 0.247442
37 1 1 0.499999 0.247442
33 1 1 0.999999 0.247442
30 1 1.5136e-16 0.666666 0.216192
32 1 0.5 0.916667 0.216192
39 1 0.5 0.75 0.247442
34 1 2.89664e-16 0.166666 0.277719
36 1 0.5 0.416667 0.277719
38 1 1 0.666666 0.277719
40 1 0.5 0.916667 0.277719
42 1 1 0.316666 0.343225
43 1 0.5 0.4 0.312948
41 1 1 0.149999 0.312948
48 1 0.5 0.0666666 0.343225
44 1 0.5 0.566667 0.343225
45 1 1.5136e-16 0.649999 0.312948
46 1 1 0.816666 0.343225
47 1 0.5 0.9 0.312948
51 1 0.5 0.4 0.374475
49 1 3.55317e-16 0.15 0.374475
53 1 1 0.65 0.374475
55 1 0.5 0.9 0.374475
50 1 3.02719e-16 0.316666 0.405539
59 1 0.5 0.4 0.436658
57 1 1 0.15 0.436658
56 1 0.5 0.0666664 0.405539
52 1 0.5 0.566666 0.405539
61 1 1 0.65 0.436658
54 1 1 0.816666 0.405539
63 1 0.5 0.9 0.436658
58 1 0 0.316667 0.467711
65 1 1 0.15 0.498876
67 1 0.5 0.399999 0.498876
64 1 0.5 0.0666665 0.467711
60 1 0.5 0.566667 0.467711
62 1 1 0.816667 0.467711
69 1 1 0.65 0.498876
71 1 0.5 0.899999 0.498876
66 1 0 0.316667 0.529769
72 1 0.5 0.0666665 0.529769
68 1 0.5 0.566666 0.529769
70 1 0 0.816667 0.529769
74 1 1.5017e-16 0.316667 0.590665
75 1 0.5 0.4 0.561598
73 1 0 0.15 0.561598
80 1 0.5 0.0666666 0.590665
76 1 0.5 0.566667 0.590665
77 1 0 0.65 0.561598
78 1 8.66974e-17 0.816667 0.590665
79 1 0.5 0.9 0.561598
