ITEM: TIMESTEP
589
ITEM: NUMBER OF ATOMS
80
ITEM: BOX BOUNDS pp pp pp
0.0000000000000000e+00 2.9340000000000002e+00
0.0000000000000000e+00 1.0163669400000002e+01
0.0000000000000000e+00 7.4682691523668808e+01
ITEM: ATOMS id type xs ys zs
1 1 0 0 0
2 1 0 0.166667 0.0290673
3 1 0.5 0.25 0
4 1 0.5 0.416667 0.0290673
5 1 0 0.5 0
6 1 1 0.666667 0.0290673
7 1 0.5 0.75 0
8 1 0.5 0.916667 0.0290673
10 1 1 0.166667 0.0917894
11 1 0.5 0.25 0.0608957
12 1 0.5 0.416667 0.0917894
13 1 0 0.5 0.0608957
9 1 1 1 0.0608957
14 1 1 0.666667 0.0917894
15 1 0.5 0.75 0.0608957
16 1 0.5 0.916667 0.0917894
19 1 0.5 0.25 0.122954
21 1 1 0.5 0.122954
17 1 1 1 0.122954
23 1 0.5 0.75 0.122954
18 1 1 0.166666 0.154016
20 1 0.5 0.416667 0.154016
27 1 0.5 0.25 0.185119
29 1 1.40059e-16 0.5 0.185119
25 1 1 1 0.185119
22 1 1 0.666666 0.154016
24 1 0.5 0.916667 0.154016
31 1 0.5 0.75 0.185119
26 1 1 0.166666 0.2162
28 1 0.5 0.416667 0.2162
35 1 0.5 0.25 0.247218
37 1 1 0.499999 0.247218
33 1 1 0.999999 0.247218
30 1 1.5136e-16 0.666666 0.2162
32 1 0.5 0.916667 0.2162
39 1 0.5 0.75 0.247218
34 1 2.89664e-16 0.166666 0.278101
36 1 0.5 0.416667 0.278101
38 1 1 0.666666 0.278101
40 1 0.5 0.916667 0.278101
41 1 1 0.433333 0.310246
48 1 0.5 0.35 0.341129
47 1 0.5 0.183333 0.310246
46 1 1 0.0999994 0.341129
42 1 1 0.599999 0.341129
43 1 0.5 0.683333 0.310246
44 1 0.5 0.85 0.341129
45 1 1.5136e-16 0.933333 0.310246
49 1 3.55317e-16 0.433333 0.372146
55 1 0.5 0.183333 0.372146
51 1 0.5 0.683333 0.372146
53 1 1 0.933333 0.372146
57 1 1 0.433333 0.434331
56 1 0.5 0.35 0.403228
63 1 0.5 0.183333 0.434331
54 1 1 0.0999997 0.403228
50 1 3.02719e-16 0.6 0.403228
59 1 0.5 0.683333 0.434331
52 1 0.5 0.85 0.403228
61 1 1 0.933333 0.434331
65 1 1 0.433334 0.496557
64 1 0.5 0.35 0.465393
71 1 0.5 0.183333 0.496557
62 1 1 0.0999998 0.465393
58 1 0 0.6 0.465393
67 1 0.5 0.683333 0.496557
60 1 0.5 0.85 0.465393
69 1 1 0.933334 0.496557
72 1 0.5 0.35 0.527451
70 1 0 0.1 0.527451
66 1 0 0.6 0.527451
68 1 0.5 0.85 0.527451
73 1 0 0.433333 0.55928
80 1 0.5 0.35 0.588347
79 1 0.5 0.183333 0.55928
78 1 8.66974e-17 0.1 0.588347
74 1 1.5017e-16 0.6 0.588347
75 1 0.5 0.683333 0.55928
76 1 0.5 0.85 0.588347
77 1 0 0.933333 0.55928
