ITEM: TIMESTEP
439
ITEM: NUMBER OF ATOMS
80
ITEM: BOX BOUNDS pp pp pp
0.0000000000000000e+00 2.9340000000000002e+00
0.0000000000000000e+00 1.0163669400000002e+01
0.0000000000000000e+00 7.4682691523668808e+01
ITEM: ATOMS id type xs ys zs
1 1 0 0 0
2 1 0 0.166667 0.0290676
3 1 0.5 0.25 0
4 1 0.5 0.416667 0.0290676
5 1 0 0.5 0
6 1 1 0.666667 0.0290676
7 1 0.5 0.75 0
8 1 0.5 0.916667 0.0290676
10 1 1 0.166667 0.0917907
11 1 0.5 0.25 0.0608966
12 1 0.5 0.416667 0.0917906
13 1 0 0.5 0.0608966
9 1 1 1 0.0608966
14 1 1 0.666667 0.0917907
15 1 0.5 0.75 0.0608966
16 1 0.5 0.916667 0.0917906
19 1 0.5 0.25 0.122955
21 1 1 0.5 0.122955
17 1 1 1 0.122955
23 1 0.5 0.75 0.122955
18 1 1 0.166666 0.154018
20 1 0.5 0.416667 0.154018
27 1 0.5 0.25 0.185122
29 1 1.40059e-16 0.5 0.185122
25 1 1 1 0.185122
22 1 1 0.666666 0.154018
24 1 0.5 0.916667 0.154018
31 1 0.5 0.75 0.185122
26 1 1 0.166666 0.216207
28 1 0.5 0.416667 0.216207
35 1 0.5 0.25 0.247235
37 1 1 0.499999 0.247235
33 1 1 0.999999 0.247235
30 1 1.5136e-16 0.666666 0.216207
32 1 0.5 0.916667 0.216207
39 1 0.5 0.75 0.247235
34 1 2.89664e-16 0.166666 0.278069
36 1 0.5 0.416667 0.278069
38 1 1 0.666666 0.278069
40 1 0.5 0.916667 0.278069
42 1 1 0.449999 0.341154
41 1 1 0.283333 0.31032
48 1 0.5 0.2 0.341154
47 1 0.5 0.0333332 0.31032
43 1 0.5 0.533333 0.31032
44 1 0.5 0.7 0.341154
45 1 1.5136e-16 0.783333 0.31032
46 1 1 0.949999 0.341154
49 1 3.55317e-16 0.283333 0.372181
55 1 0.5 0.033333 0.372181
51 1 0.5 0.533333 0.372181
53 1 1 0.783333 0.372181
50 1 3.02719e-16 0.45 0.403266
57 1 1 0.283333 0.434371
56 1 0.5 0.2 0.403266
63 1 0.5 0.0333332 0.434371
59 1 0.5 0.533333 0.434371
52 1 0.5 0.7 0.403266
61 1 1 0.783333 0.434371
54 1 1 0.95 0.403266
58 1 0 0.45 0.465433
65 1 1 0.283334 0.496597
64 1 0.5 0.2 0.465433
71 1 0.5 0.0333328 0.496597
67 1 0.5 0.533333 0.496597
60 1 0.5 0.7 0.465433
62 1 1 0.95 0.465433
69 1 1 0.783334 0.496597
66 1 0 0.45 0.52749
72 1 0.5 0.2 0.52749
68 1 0.5 0.7 0.52749
70 1 0 0.95 0.52749
74 1 1.5017e-16 0.45 0.588386
73 1 0 0.283333 0.559319
80 1 0.5 0.2 0.588386
79 1 0.5 0.0333334 0.559319
75 1 0.5 0.533333 0.559319
76 1 0.5 0.7 0.588386
77 1 0 0.783333 0.559319
78 1 8.66974e-17 0.95 0.588386
