ITEM: TIMESTEP
559
ITEM: NUMBER OF ATOMS
80
ITEM: BOX BOUNDS pp pp pp
0.0000000000000000e+00 2.9340000000000002e+00
0.0000000000000000e+00 1.0163669400000002e+01
0.0000000000000000e+00 7.4682691523668808e+01
ITEM: ATOMS id type xs ys zs
1 1 0 0 0
2 1 0 0.166667 0.0290673
3 1 0.5 0.25 0
4 1 0.5 0.416667 0.0290673
5 1 0 0.5 0
6 1 1 0.666667 0.0290673
7 1 0.5 0.75 0
8 1 0.5 0.916667 0.0290673
10 1 1 0.166667 0.0917894
11 1 0.5 0.25 0.0608957
12 1 0.5 0.416667 0.0917894
13 1 0 0.5 0.0608957
9 1 1 1 0.0608957
14 1 1 0.666667 0.0917894
15 1 0.5 0.75 0.0608957
16 1 0.5 0.916667 0.0917894
19 1 0.5 0.25 0.122953
21 1 1 0.5 0.122953
17 1 1 1 0.122953
23 1 0.5 0.75 0.122953
18 1 1 0.166666 0.154016
20 1 0.5 0.416667 0.154016
27 1 0.5 0.25 0.185118
29 1 1.40059e-16 0.5 0.185118
25 1 1 1 0.185118
22 1 1 0.666666 0.154016
24 1 0.5 0.916667 0.154016
31 1 0.5 0.75 0.185118
26 1 1 0.166666 0.216204
28 1 0.5 0.416667 0.216204
35 1 0.5 0.25 0.247208
37 1 1 0.499999 0.247208
33 1 1 0.999999 0.247208
30 1 1.5136e-16 0.666666 0.216204
32 1 0.5 0.916667 0.216204
39 1 0.5 0.75 0.247208
34 1 2.89664e-16 0.166666 0.278112
36 1 0.5 0.416667 0.278112
38 1 1 0.666666 0.278112
40 1 0.5 0.916667 0.278112
41 1 1 0.399999 0.310365
48 1 0.5 0.316667 0.341269
47 1 0.5 0.15 0.310365
46 1 1 0.0666661 0.341269
42 1 1 0.566666 0.341269
43 1 0.5 0.65 0.310365
44 1 0.5 0.816667 0.341269
45 1 1.5136e-16 0.899999 0.310365
49 1 3.55317e-16 0.4 0.372273
55 1 0.5 0.15 0.372273
51 1 0.5 0.65 0.372273
53 1 1 0.9 0.372273
57 1 1 0.4 0.43446
56 1 0.5 0.316666 0.403358
63 1 0.5 0.15 0.43446
54 1 1 0.0666664 0.403358
50 1 3.02719e-16 0.566666 0.403358
59 1 0.5 0.65 0.43446
52 1 0.5 0.816666 0.403358
61 1 1 0.9 0.43446
65 1 1 0.4 0.496687
64 1 0.5 0.316667 0.465523
71 1 0.5 0.149999 0.496687
62 1 1 0.0666665 0.465523
58 1 0 0.566667 0.465523
67 1 0.5 0.649999 0.496687
60 1 0.5 0.816667 0.465523
69 1 1 0.9 0.496687
72 1 0.5 0.316666 0.527581
70 1 0 0.0666669 0.527581
66 1 0 0.566667 0.527581
68 1 0.5 0.816666 0.527581
73 1 0 0.4 0.559409
80 1 0.5 0.316667 0.588476
79 1 0.5 0.15 0.559409
78 1 8.66974e-17 0.0666669 0.588476
74 1 1.5017e-16 0.566667 0.588476
75 1 0.5 0.65 0.559409
76 1 0.5 0.816667 0.588476
77 1 0 0.9 0.559409
