ITEM: TIMESTEP
497
ITEM: NUMBER OF ATOMS
80
ITEM: BOX BOUNDS pp pp pp
0.0000000000000000e+00 2.9340000000000002e+00
0.0000000000000000e+00 1.0163669400000002e+01
0.0000000000000000e+00 7.4682691523668808e+01
ITEM: ATOMS id type xs ys zs
1 1 0 0 0
2 1 0 0.166667 0.0290672
3 1 0.5 0.25 0
4 1 0.5 0.416667 0.0290672
5 1 0 0.5 0
6 1 1 0.666667 0.0290672
7 1 0.5 0.75 0
8 1 0.5 0.916667 0.0290672
10 1 1 0.166667 0.0917892
11 1 0.5 0.25 0.0608954
12 1 0.5 0.416667 0.0917892
13 1 0 0.5 0.0608954
9 1 1 1 0.0608954
14 1 1 0.666667 0.0917892
15 1 0.5 0.75 0.0608954
16 1 0.5 0.916667 0.0917892
19 1 0.5 0.25 0.122953
21 1 1 0.5 0.122953
17 1 1 1 0.122953
23 1 0.5 0.75 0.122953
18 1 1 0.166666 0.154018
20 1 0.5 0.416667 0.154018
27 1 0.5 0.25 0.185112
29 1 1.40059e-16 0.5 0.185112
25 1 1 1 0.185112
22 1 1 0.666666 0.154018
24 1 0.5 0.916667 0.154018
31 1 0.5 0.75 0.185112
26 1 1 0.166666 0.2162
28 1 0.5 0.416667 0.2162
35 1 0.5 0.25 0.247166
37 1 1 0.499999 0.247166
33 1 1 0.999999 0.247166
30 1 1.5136e-16 0.666666 0.2162
32 1 0.5 0.916667 0.2162
39 1 0.5 0.75 0.247166
34 1 2.89664e-16 0.166666 0.278344
36 1 0.5 0.416667 0.278344
38 1 1 0.666666 0.278344
40 1 0.5 0.916667 0.278344
42 1 1 0.499999 0.341306
41 1 1 0.333333 0.310127
48 1 0.5 0.25 0.341306
47 1 0.5 0.0833332 0.310127
43 1 0.5 0.583333 0.310127
44 1 0.5 0.75 0.341306
45 1 1.5136e-16 0.833333 0.310127
46 1 1 0.999999 0.341306
49 1 3.55317e-16 0.333333 0.372271
55 1 0.5 0.083333 0.372271
51 1 0.5 0.583333 0.372271
53 1 1 0.833333 0.372271
50 1 3.02719e-16 0.5 0.403359
57 1 1 0.333333 0.434453
56 1 0.5 0.25 0.403359
63 1 0.5 0.0833332 0.434453
59 1 0.5 0.583333 0.434453
52 1 0.5 0.75 0.403359
61 1 1 0.833333 0.434453
54 1 1 1 0.403359
58 1 0 0.5 0.465518
65 1 1 0.333334 0.496682
64 1 0.5 0.25 0.465518
71 1 0.5 0.0833328 0.496682
67 1 0.5 0.583333 0.496682
60 1 0.5 0.75 0.465518
62 1 1 1 0.465518
69 1 1 0.833334 0.496682
72 1 0.5 0.25 0.527576
70 1 0 2.37646e-07 0.527576
66 1 0 0.5 0.527576
68 1 0.5 0.75 0.527576
73 1 0 0.333333 0.559404
80 1 0.5 0.25 0.588471
79 1 0.5 0.0833334 0.559404
78 1 8.66974e-17 2.46694e-07 0.588471
74 1 1.5017e-16 0.5 0.588471
75 1 0.5 0.583333 0.559404
76 1 0.5 0.75 0.588471
77 1 0 0.833333 0.559404
