ITEM: TIMESTEP
139
ITEM: NUMBER OF ATOMS
80
ITEM: BOX BOUNDS pp pp pp
0.0000000000000000e+00 3.5588443270000001e+00
0.0000000000000000e+00 1.2328192633160700e+01
0.0000000000000000e+00 9.8804255508626724e+01
ITEM: ATOMS id type xs ys zs
1 1 0 0 0
2 1 0 0.166667 0.0235035
3 1 0.5 0.25 0
4 1 0.5 0.416667 0.0235035
5 1 0 0.5 0
6 1 2.05329e-17 0.666667 0.0235035
7 1 0.5 0.75 0
8 1 0.5 0.916667 0.0235035
11 1 0.5 0.25 0.0475329
10 1 1 0.166667 0.0717263
13 1 1 0.5 0.0475329
12 1 0.5 0.416667 0.0717263
14 1 3.33179e-17 0.666667 0.0717263
9 1 1 1 0.0475329
15 1 0.5 0.75 0.0475329
16 1 0.5 0.916667 0.0717263
19 1 0.5 0.25 0.095938
21 1 1 0.5 0.095938
17 1 0 1 0.095938
23 1 0.5 0.75 0.095938
18 1 1 0.166666 0.120151
27 1 0.5 0.25 0.144362
20 1 0.5 0.416666 0.120151
22 1 1 0.666666 0.120151
29 1 1 0.5 0.144362
24 1 0.5 0.916666 0.120151
25 1 0 1 0.144362
31 1 0.5 0.75 0.144362
26 1 1 0.166666 0.168555
35 1 0.5 0.25 0.192584
28 1 0.5 0.416666 0.168555
30 1 1 0.666666 0.168555
37 1 1 0.5 0.192584
33 1 1 1 0.192584
32 1 0.5 0.916666 0.168555
39 1 0.5 0.75 0.192584
34 1 1 0.166666 0.216088
36 1 0.5 0.416666 0.216088
38 1 1 0.666666 0.216088
40 1 0.5 0.916666 0.216088
41 1 1 0.333333 0.330288
48 1 0.5 0.25 0.353791
47 1 0.5 0.0833329 0.330288
42 1 1 0.5 0.353791
43 1 0.5 0.583333 0.330288
44 1 0.5 0.75 0.353791
45 1 0 0.833333 0.330288
46 1 1 1 0.353791
49 1 1 0.333333 0.37782
55 1 0.5 0.0833328 0.37782
51 1 0.5 0.583333 0.37782
53 1 1 0.833333 0.37782
57 1 1 0.333333 0.426225
56 1 0.5 0.25 0.402013
63 1 0.5 0.0833328 0.426225
50 1 0 0.5 0.402013
59 1 0.5 0.583333 0.426225
52 1 0.5 0.75 0.402013
61 1 4.04156e-17 0.833333 0.426225
54 1 1 1 0.402013
65 1 0 0.333333 0.474649
64 1 0.5 0.249999 0.450437
71 1 0.5 0.0833326 0.474649
58 1 0 0.499999 0.450437
67 1 0.5 0.583333 0.474649
60 1 0.5 0.749999 0.450437
69 1 1 0.833333 0.474649
62 1 1 0.999999 0.450437
72 1 0.5 0.249999 0.498843
66 1 0 0.499999 0.498843
68 1 0.5 0.749999 0.498843
70 1 1.70968e-17 0.999999 0.498843
73 1 1.80855e-16 0.333332 0.522872
80 1 0.5 0.249998 0.546375
79 1 0.5 0.0833325 0.522872
74 1 0 0.5 0.546375
75 1 0.5 0.583333 0.522872
76 1 0.5 0.749998 0.546375
77 1 8.48732e-17 0.833332 0.522872
78 1 0 1 0.546375
