ITEM: TIMESTEP
151
ITEM: NUMBER OF ATOMS
80
ITEM: BOX BOUNDS pp pp pp
0.0000000000000000e+00 2.9340000000000002e+00
0.0000000000000000e+00 1.0163669400000002e+01
0.0000000000000000e+00 7.4682691523668808e+01
ITEM: ATOMS id type xs ys zs
1 1 0 0 0
2 1 0 0.166667 0.0290675
3 1 0.5 0.25 0
4 1 0.5 0.416667 0.0290675
5 1 0 0.5 0
6 1 1 0.666667 0.0290675
7 1 0.5 0.75 0
8 1 0.5 0.916667 0.0290675
10 1 1 0.166667 0.0917893
11 1 0.5 0.25 0.060896
12 1 0.5 0.416667 0.0917893
13 1 0 0.5 0.060896
9 1 1 1 0.060896
14 1 1 0.666667 0.0917893
15 1 0.5 0.75 0.060896
16 1 0.5 0.916667 0.0917893
19 1 0.5 0.25 0.122954
21 1 1 0.5 0.122954
17 1 1 1 0.122954
23 1 0.5 0.75 0.122954
18 1 1 0.166666 0.154011
20 1 0.5 0.416667 0.154011
27 1 0.5 0.25 0.185125
29 1 1.40059e-16 0.5 0.185125
25 1 1 1 0.185125
22 1 1 0.666666 0.154011
24 1 0.5 0.916667 0.154011
31 1 0.5 0.75 0.185125
26 1 1 0.166666 0.216192
28 1 0.5 0.416667 0.216192
35 1 0.5 0.25 0.247319
37 1 1 0.499999 0.247319
33 1 1 0.999999 0.247319
30 1 1.5136e-16 0.666666 0.216192
32 1 0.5 0.916667 0.216192
39 1 0.5 0.75 0.247319
34 1 2.89664e-16 0.166666 0.277828
36 1 0.5 0.416667 0.277828
38 1 1 0.666666 0.277828
40 1 0.5 0.916667 0.277828
42 1 1 0.249999 0.341525
43 1 0.5 0.333333 0.311015
44 1 0.5 0.5 0.341525
41 1 1 0.0833327 0.311015
45 1 1.5136e-16 0.583333 0.311015
46 1 1 0.749999 0.341525
47 1 0.5 0.833333 0.311015
48 1 0.5 1 0.341525
51 1 0.5 0.333333 0.372653
49 1 3.55317e-16 0.0833329 0.372653
53 1 1 0.583333 0.372653
55 1 0.5 0.833333 0.372653
50 1 3.02719e-16 0.25 0.40372
52 1 0.5 0.5 0.40372
59 1 0.5 0.333333 0.434835
57 1 1 0.0833329 0.434835
61 1 1 0.583333 0.434835
54 1 1 0.75 0.40372
56 1 0.5 1 0.40372
63 1 0.5 0.833333 0.434835
58 1 0 0.25 0.465893
60 1 0.5 0.5 0.465893
65 1 1 0.0833336 0.497058
67 1 0.5 0.333333 0.497058
62 1 1 0.75 0.465893
64 1 0.5 1 0.465893
69 1 1 0.583334 0.497058
71 1 0.5 0.833333 0.497058
66 1 0 0.25 0.527952
68 1 0.5 0.5 0.527952
70 1 0 0.75 0.527952
72 1 0.5 1 0.527952
74 1 1.5017e-16 0.25 0.588848
75 1 0.5 0.333333 0.559781
76 1 0.5 0.5 0.588848
73 1 0 0.0833333 0.559781
77 1 0 0.583333 0.559781
78 1 8.66974e-17 0.75 0.588848
79 1 0.5 0.833333 0.559781
80 1 0.5 1 0.588848
