ITEM: TIMESTEP
59
ITEM: NUMBER OF ATOMS
80
ITEM: BOX BOUNDS pp pp pp
0.0000000000000000e+00 2.9340000000000002e+00
0.0000000000000000e+00 1.0163669400000002e+01
0.0000000000000000e+00 7.4682691523668808e+01
ITEM: ATOMS id type xs ys zs
1 1 0 0 0
2 1 0 0.166667 0.0290673
3 1 0.5 0.25 0
4 1 0.5 0.416667 0.0290673
5 1 0 0.5 0
6 1 1 0.666667 0.0290673
7 1 0.5 0.75 0
8 1 0.5 0.916667 0.0290673
10 1 1 0.166667 0.0917895
11 1 0.5 0.25 0.0608957
12 1 0.5 0.416667 0.0917895
13 1 0 0.5 0.0608956
9 1 1 1 0.0608956
14 1 1 0.666667 0.0917895
15 1 0.5 0.75 0.0608957
16 1 0.5 0.916667 0.0917895
19 1 0.5 0.25 0.122954
21 1 1 0.5 0.122954
17 1 1 1 0.122954
23 1 0.5 0.75 0.122954
18 1 1 0.166666 0.154015
20 1 0.5 0.416667 0.154015
27 1 0.5 0.25 0.185111
29 1 1.40059e-16 0.5 0.185111
25 1 1 1 0.185111
22 1 1 0.666666 0.154015
24 1 0.5 0.916667 0.154015
31 1 0.5 0.75 0.185111
26 1 1 0.166666 0.216194
28 1 0.5 0.416667 0.216194
35 1 0.5 0.25 0.247273
37 1 1 0.499999 0.247273
33 1 1 0.999999 0.247273
30 1 1.5136e-16 0.666666 0.216194
32 1 0.5 0.916667 0.216194
39 1 0.5 0.75 0.247273
34 1 2.89664e-16 0.166666 0.27833
36 1 0.5 0.416667 0.27833
38 1 1 0.666666 0.27833
40 1 0.5 0.916667 0.27833
42 1 1 0.183333 0.340615
43 1 0.5 0.266667 0.309557
44 1 0.5 0.433333 0.340615
41 1 1 0.016666 0.309557
45 1 1.5136e-16 0.516666 0.309557
46 1 1 0.683333 0.340615
47 1 0.5 0.766667 0.309557
48 1 0.5 0.933333 0.340615
51 1 0.5 0.266666 0.371693
49 1 3.55317e-16 0.0166662 0.371693
53 1 1 0.516666 0.371693
55 1 0.5 0.766666 0.371693
50 1 3.02719e-16 0.183333 0.402777
52 1 0.5 0.433333 0.402777
59 1 0.5 0.266667 0.433872
57 1 1 0.0166662 0.433872
61 1 1 0.516666 0.433872
54 1 1 0.683333 0.402777
56 1 0.5 0.933333 0.402777
63 1 0.5 0.766667 0.433872
58 1 0 0.183333 0.464933
60 1 0.5 0.433333 0.464934
65 1 1 0.0166669 0.496098
67 1 0.5 0.266666 0.496098
62 1 1 0.683333 0.464933
64 1 0.5 0.933333 0.464934
69 1 1 0.516667 0.496098
71 1 0.5 0.766666 0.496098
66 1 0 0.183334 0.526992
68 1 0.5 0.433333 0.526992
70 1 0 0.683334 0.526992
72 1 0.5 0.933333 0.526992
74 1 1.5017e-16 0.183334 0.587887
75 1 0.5 0.266667 0.55882
76 1 0.5 0.433333 0.587887
73 1 0 0.0166666 0.55882
77 1 0 0.516667 0.55882
78 1 8.66974e-17 0.683334 0.587887
79 1 0.5 0.766667 0.55882
80 1 0.5 0.933333 0.587887
