ITEM: TIMESTEP
121
ITEM: NUMBER OF ATOMS
80
ITEM: BOX BOUNDS pp pp pp
0.0000000000000000e+00 3.5588443270000001e+00
0.0000000000000000e+00 1.2328192633160700e+01
0.0000000000000000e+00 9.8804255508626724e+01
ITEM: ATOMS id type xs ys zs
1 1 0 0 0
2 1 0 0.166667 0.0235034
3 1 0.5 0.25 0
4 1 0.5 0.416667 0.0235034
5 1 0 0.5 0
6 1 2.05329e-17 0.666667 0.0235034
7 1 0.5 0.75 0
8 1 0.5 0.916667 0.0235034
11 1 0.5 0.25 0.047533
13 1 1 0.5 0.047533
9 1 1 1 0.047533
15 1 0.5 0.75 0.047533
10 1 1 0.166667 0.0717268
19 1 0.5 0.25 0.0959385
12 1 0.5 0.416667 0.0717268
14 1 3.33179e-17 0.666667 0.0717268
21 1 1 0.5 0.0959385
17 1 0 1 0.0959385
16 1 0.5 0.916667 0.0717268
23 1 0.5 0.75 0.0959385
18 1 1 0.166666 0.120151
20 1 0.5 0.416666 0.120151
22 1 1 0.666666 0.120151
24 1 0.5 0.916666 0.120151
27 1 0.5 0.25 0.144363
29 1 1 0.5 0.144363
25 1 0 1 0.144363
31 1 0.5 0.75 0.144363
26 1 1 0.166666 0.168556
35 1 0.5 0.25 0.192585
28 1 0.5 0.416666 0.168556
30 1 1 0.666666 0.168556
37 1 1 0.5 0.192585
33 1 1 1 0.192585
32 1 0.5 0.916666 0.168556
39 1 0.5 0.75 0.192585
34 1 1 0.166666 0.216088
36 1 0.5 0.416666 0.216088
38 1 1 0.666666 0.216088
40 1 0.5 0.916666 0.216088
42 1 1 0.2 0.35379
43 1 0.5 0.283333 0.330287
41 1 1 0.0333329 0.330287
44 1 0.5 0.45 0.35379
45 1 0 0.533333 0.330287
46 1 1 0.7 0.35379
47 1 0.5 0.783333 0.330287
48 1 0.5 0.95 0.35379
51 1 0.5 0.283333 0.377819
49 1 1 0.0333328 0.377819
53 1 1 0.533333 0.377819
55 1 0.5 0.783333 0.377819
50 1 0 0.2 0.402012
52 1 0.5 0.45 0.402012
54 1 1 0.7 0.402012
56 1 0.5 0.95 0.402012
58 1 0 0.199999 0.450437
59 1 0.5 0.283333 0.426224
57 1 1 0.0333328 0.426224
60 1 0.5 0.449999 0.450437
61 1 4.04156e-17 0.533333 0.426224
62 1 1 0.699999 0.450437
63 1 0.5 0.783333 0.426224
64 1 0.5 0.949999 0.450437
67 1 0.5 0.283333 0.474649
65 1 0 0.0333326 0.474649
69 1 1 0.533333 0.474649
71 1 0.5 0.783333 0.474649
66 1 0 0.199999 0.498842
75 1 0.5 0.283333 0.522872
73 1 1.80855e-16 0.0333324 0.522872
68 1 0.5 0.449999 0.498842
77 1 8.48732e-17 0.533332 0.522872
70 1 1.70968e-17 0.699999 0.498842
72 1 0.5 0.949999 0.498842
79 1 0.5 0.783333 0.522872
74 1 0 0.2 0.546375
76 1 0.5 0.449998 0.546375
78 1 0 0.7 0.546375
80 1 0.5 0.949998 0.546375
