ITEM: TIMESTEP
458
ITEM: NUMBER OF ATOMS
80
ITEM: BOX BOUNDS pp pp pp
0.0000000000000000e+00 2.9340000000000002e+00
0.0000000000000000e+00 1.0163669400000002e+01
0.0000000000000000e+00 7.4682691523668808e+01
ITEM: ATOMS id type xs ys zs
1 1 0 0 0
2 1 0 0.166667 0.0290672
3 1 0.5 0.25 0
4 1 0.5 0.416667 0.0290671
5 1 0 0.5 0
6 1 1 0.666667 0.0290672
7 1 0.5 0.75 0
8 1 0.5 0.916667 0.0290671
10 1 1 0.166667 0.0917892
11 1 0.5 0.25 0.0608953
12 1 0.5 0.416667 0.0917892
13 1 0 0.5 0.0608953
9 1 1 1 0.0608953
14 1 1 0.666667 0.0917892
15 1 0.5 0.75 0.0608953
16 1 0.5 0.916667 0.0917892
19 1 0.5 0.25 0.122953
21 1 1 0.5 0.122953
17 1 1 1 0.122953
23 1 0.5 0.75 0.122953
18 1 1 0.166666 0.154016
20 1 0.5 0.416667 0.154017
27 1 0.5 0.25 0.185115
29 1 1.40059e-16 0.5 0.185115
25 1 1 1 0.185115
22 1 1 0.666666 0.154016
24 1 0.5 0.916667 0.154017
31 1 0.5 0.75 0.185115
26 1 1 0.166666 0.216201
28 1 0.5 0.416667 0.216201
35 1 0.5 0.25 0.24719
37 1 1 0.499999 0.24719
33 1 1 0.999999 0.24719
30 1 1.5136e-16 0.666666 0.216201
32 1 0.5 0.916667 0.216201
39 1 0.5 0.75 0.24719
34 1 2.89664e-16 0.166666 0.278225
36 1 0.5 0.416667 0.278225
38 1 1 0.666666 0.278225
40 1 0.5 0.916667 0.278225
42 1 1 0.466666 0.341259
41 1 1 0.299999 0.310224
48 1 0.5 0.216667 0.341259
47 1 0.5 0.0499998 0.310224
43 1 0.5 0.55 0.310224
44 1 0.5 0.716667 0.341259
45 1 1.5136e-16 0.799999 0.310224
46 1 1 0.966666 0.341259
49 1 3.55317e-16 0.3 0.372248
55 1 0.5 0.0499997 0.372248
51 1 0.5 0.55 0.372248
53 1 1 0.8 0.372248
50 1 3.02719e-16 0.466666 0.403334
57 1 1 0.3 0.434433
56 1 0.5 0.216666 0.403334
63 1 0.5 0.0499998 0.434433
59 1 0.5 0.55 0.434433
52 1 0.5 0.716666 0.403334
61 1 1 0.8 0.434433
54 1 1 0.966666 0.403334
58 1 0 0.466667 0.465496
65 1 1 0.3 0.49666
64 1 0.5 0.216667 0.465496
71 1 0.5 0.0499995 0.49666
67 1 0.5 0.549999 0.49666
60 1 0.5 0.716667 0.465496
62 1 1 0.966667 0.465496
69 1 1 0.8 0.49666
66 1 0 0.466667 0.527554
72 1 0.5 0.216666 0.527554
68 1 0.5 0.716666 0.527554
70 1 0 0.966667 0.527554
74 1 1.5017e-16 0.466667 0.58845
73 1 0 0.3 0.559383
80 1 0.5 0.216667 0.58845
79 1 0.5 0.0500001 0.559383
75 1 0.5 0.55 0.559383
76 1 0.5 0.716667 0.58845
77 1 0 0.8 0.559383
78 1 8.66974e-17 0.966667 0.58845
