ITEM: TIMESTEP
134
ITEM: NUMBER OF ATOMS
80
ITEM: BOX BOUNDS pp pp pp
0.0000000000000000e+00 3.5588443270000001e+00
0.0000000000000000e+00 1.2328192633160700e+01
0.0000000000000000e+00 9.8804255508626724e+01
ITEM: ATOMS id type xs ys zs
1 1 0 0 0
2 1 0 0.166667 0.0235035
3 1 0.5 0.25 0
4 1 0.5 0.416667 0.0235035
5 1 0 0.5 0
6 1 2.05329e-17 0.666667 0.0235035
7 1 0.5 0.75 0
8 1 0.5 0.916667 0.0235035
11 1 0.5 0.25 0.0475329
10 1 1 0.166667 0.0717264
13 1 1 0.5 0.0475329
12 1 0.5 0.416667 0.0717264
14 1 3.33179e-17 0.666667 0.0717264
9 1 1 1 0.0475329
15 1 0.5 0.75 0.0475329
16 1 0.5 0.916667 0.0717264
19 1 0.5 0.25 0.0959382
21 1 1 0.5 0.0959382
17 1 0 1 0.0959382
23 1 0.5 0.75 0.0959382
18 1 1 0.166666 0.120151
27 1 0.5 0.25 0.144363
20 1 0.5 0.416666 0.120151
22 1 1 0.666666 0.120151
29 1 1 0.5 0.144363
24 1 0.5 0.916666 0.120151
25 1 0 1 0.144363
31 1 0.5 0.75 0.144363
26 1 1 0.166666 0.168556
35 1 0.5 0.25 0.192585
28 1 0.5 0.416666 0.168556
30 1 1 0.666666 0.168556
37 1 1 0.5 0.192585
33 1 1 1 0.192585
32 1 0.5 0.916666 0.168556
39 1 0.5 0.75 0.192585
34 1 1 0.166666 0.216088
36 1 0.5 0.416666 0.216088
38 1 1 0.666666 0.216088
40 1 0.5 0.916666 0.216088
41 1 1 0.25 0.330288
48 1 0.5 0.166666 0.353791
42 1 1 0.416666 0.353791
43 1 0.5 0.5 0.330288
44 1 0.5 0.666666 0.353791
45 1 0 0.75 0.330288
46 1 1 0.916666 0.353791
47 1 0.5 1 0.330288
49 1 1 0.25 0.37782
51 1 0.5 0.5 0.37782
53 1 1 0.75 0.37782
55 1 0.5 1 0.37782
57 1 1 0.249999 0.426224
56 1 0.5 0.166666 0.402013
50 1 0 0.416666 0.402013
59 1 0.5 0.499999 0.426224
52 1 0.5 0.666666 0.402013
61 1 4.04156e-17 0.749999 0.426224
54 1 1 0.916666 0.402013
63 1 0.5 0.999999 0.426224
65 1 0 0.249999 0.474649
64 1 0.5 0.166666 0.450437
58 1 0 0.416666 0.450437
67 1 0.5 0.499999 0.474649
60 1 0.5 0.666666 0.450437
69 1 1 0.749999 0.474649
62 1 1 0.916666 0.450437
71 1 0.5 0.999999 0.474649
72 1 0.5 0.166666 0.498842
66 1 0 0.416666 0.498842
68 1 0.5 0.666666 0.498842
70 1 1.70968e-17 0.916666 0.498842
73 1 1.80855e-16 0.249999 0.522872
80 1 0.5 0.166665 0.546375
74 1 0 0.416667 0.546375
75 1 0.5 0.499999 0.522872
76 1 0.5 0.666665 0.546375
77 1 8.48732e-17 0.749999 0.522872
79 1 0.5 0.999999 0.522872
78 1 0 0.916667 0.546375
