ITEM: TIMESTEP
390
ITEM: NUMBER OF ATOMS
80
ITEM: BOX BOUNDS pp pp pp
0.0000000000000000e+00 2.9340000000000002e+00
0.0000000000000000e+00 1.0163669400000002e+01
0.0000000000000000e+00 7.4682691523668808e+01
ITEM: ATOMS id type xs ys zs
1 1 0 0 0
2 1 0 0.166667 0.0290674
3 1 0.5 0.25 0
4 1 0.5 0.416667 0.0290673
5 1 0 0.5 0
6 1 1 0.666667 0.0290674
7 1 0.5 0.75 0
8 1 0.5 0.916667 0.0290673
10 1 1 0.166667 0.0917892
11 1 0.5 0.25 0.060896
12 1 0.5 0.416667 0.0917892
13 1 0 0.5 0.060896
9 1 1 1 0.060896
14 1 1 0.666667 0.0917892
15 1 0.5 0.75 0.060896
16 1 0.5 0.916667 0.0917892
19 1 0.5 0.25 0.122954
21 1 1 0.5 0.122954
17 1 1 1 0.122954
23 1 0.5 0.75 0.122954
18 1 1 0.166666 0.154011
20 1 0.5 0.416667 0.154011
27 1 0.5 0.25 0.18512
29 1 1.40059e-16 0.5 0.18512
25 1 1 1 0.18512
22 1 1 0.666666 0.154011
24 1 0.5 0.916667 0.154011
31 1 0.5 0.75 0.18512
26 1 1 0.166666 0.216197
28 1 0.5 0.416667 0.216197
35 1 0.5 0.25 0.247341
37 1 1 0.499999 0.247341
33 1 1 0.999999 0.247341
30 1 1.5136e-16 0.666666 0.216197
32 1 0.5 0.916667 0.216197
39 1 0.5 0.75 0.247341
34 1 2.89664e-16 0.166666 0.277935
36 1 0.5 0.416667 0.277935
38 1 1 0.666666 0.277935
40 1 0.5 0.916667 0.277935
42 1 1 0.416666 0.342335
43 1 0.5 0.5 0.311742
41 1 1 0.249999 0.311742
48 1 0.5 0.166667 0.342335
44 1 0.5 0.666667 0.342335
45 1 1.5136e-16 0.749999 0.311742
46 1 1 0.916666 0.342335
47 1 0.5 1 0.311742
51 1 0.5 0.5 0.37348
49 1 3.55317e-16 0.25 0.37348
53 1 1 0.75 0.37348
55 1 0.5 1 0.37348
50 1 3.02719e-16 0.416666 0.404557
59 1 0.5 0.5 0.435667
57 1 1 0.25 0.435667
56 1 0.5 0.166666 0.404557
52 1 0.5 0.666666 0.404557
61 1 1 0.75 0.435667
54 1 1 0.916666 0.404557
63 1 0.5 1 0.435667
58 1 0 0.416667 0.466724
65 1 1 0.25 0.497889
67 1 0.5 0.499999 0.497889
64 1 0.5 0.166667 0.466724
60 1 0.5 0.666667 0.466724
62 1 1 0.916667 0.466724
69 1 1 0.75 0.497889
71 1 0.5 0.999999 0.497889
66 1 0 0.416667 0.528783
72 1 0.5 0.166666 0.528783
68 1 0.5 0.666666 0.528783
70 1 0 0.916667 0.528783
74 1 1.5017e-16 0.416667 0.58968
73 1 0 0.25 0.560612
80 1 0.5 0.166667 0.58968
79 1 0.5 6.02294e-08 0.560612
75 1 0.5 0.5 0.560612
76 1 0.5 0.666667 0.58968
77 1 0 0.75 0.560612
78 1 8.66974e-17 0.916667 0.58968
