ITEM: TIMESTEP
277
ITEM: NUMBER OF ATOMS
80
ITEM: BOX BOUNDS pp pp pp
0.0000000000000000e+00 2.9340000000000002e+00
0.0000000000000000e+00 1.0163669400000002e+01
0.0000000000000000e+00 7.4682691523668808e+01
ITEM: ATOMS id type xs ys zs
1 1 0 0 0
2 1 0 0.166667 0.0290673
3 1 0.5 0.25 0
4 1 0.5 0.416667 0.0290673
5 1 0 0.5 0
6 1 1 0.666667 0.0290673
7 1 0.5 0.75 0
8 1 0.5 0.916667 0.0290673
10 1 1 0.166667 0.0917892
11 1 0.5 0.25 0.060896
12 1 0.5 0.416667 0.0917891
13 1 0 0.5 0.0608959
9 1 1 1 0.0608959
14 1 1 0.666667 0.0917892
15 1 0.5 0.75 0.060896
16 1 0.5 0.916667 0.0917891
19 1 0.5 0.25 0.122955
21 1 1 0.5 0.122955
17 1 1 1 0.122955
23 1 0.5 0.75 0.122955
18 1 1 0.166666 0.154008
20 1 0.5 0.416667 0.154008
27 1 0.5 0.25 0.185127
29 1 1.40059e-16 0.5 0.185127
25 1 1 1 0.185127
22 1 1 0.666666 0.154008
24 1 0.5 0.916667 0.154008
31 1 0.5 0.75 0.185127
26 1 1 0.166666 0.216191
28 1 0.5 0.416667 0.216191
35 1 0.5 0.25 0.247451
37 1 1 0.499999 0.247451
33 1 1 0.999999 0.247451
30 1 1.5136e-16 0.666666 0.216191
32 1 0.5 0.916667 0.216191
39 1 0.5 0.75 0.247451
34 1 2.89664e-16 0.166666 0.277711
36 1 0.5 0.416667 0.277711
38 1 1 0.666666 0.277711
40 1 0.5 0.916667 0.277711
42 1 1 0.333333 0.343161
43 1 0.5 0.416667 0.312901
41 1 1 0.166666 0.312901
48 1 0.5 0.0833332 0.343161
44 1 0.5 0.583333 0.343161
45 1 1.5136e-16 0.666666 0.312901
46 1 1 0.833333 0.343161
47 1 0.5 0.916667 0.312901
51 1 0.5 0.416666 0.374422
49 1 3.55317e-16 0.166666 0.374422
53 1 1 0.666666 0.374422
55 1 0.5 0.916666 0.374422
50 1 3.02719e-16 0.333333 0.405485
59 1 0.5 0.416667 0.436605
57 1 1 0.166666 0.436605
56 1 0.5 0.0833331 0.405485
52 1 0.5 0.583333 0.405485
61 1 1 0.666666 0.436605
54 1 1 0.833333 0.405485
63 1 0.5 0.916667 0.436605
58 1 0 0.333333 0.467658
65 1 1 0.166667 0.498823
67 1 0.5 0.416666 0.498823
64 1 0.5 0.0833332 0.467658
60 1 0.5 0.583333 0.467658
62 1 1 0.833333 0.467658
69 1 1 0.666667 0.498823
71 1 0.5 0.916666 0.498823
66 1 0 0.333334 0.529716
72 1 0.5 0.0833332 0.529716
68 1 0.5 0.583333 0.529716
70 1 0 0.833334 0.529716
74 1 1.5017e-16 0.333334 0.590612
75 1 0.5 0.416667 0.561545
73 1 0 0.166667 0.561545
80 1 0.5 0.0833333 0.590612
76 1 0.5 0.583333 0.590612
77 1 0 0.666667 0.561545
78 1 8.66974e-17 0.833334 0.590612
79 1 0.5 0.916667 0.561545
