ITEM: TIMESTEP
345
ITEM: NUMBER OF ATOMS
80
ITEM: BOX BOUNDS pp pp pp
0.0000000000000000e+00 2.9340000000000002e+00
0.0000000000000000e+00 1.0163669400000002e+01
0.0000000000000000e+00 7.4682691523668808e+01
ITEM: ATOMS id type xs ys zs
1 1 0 0 0
2 1 0 0.166667 0.0290673
3 1 0.5 0.25 0
4 1 0.5 0.416667 0.0290673
5 1 0 0.5 0
6 1 1 0.666667 0.0290673
7 1 0.5 0.75 0
8 1 0.5 0.916667 0.0290673
10 1 1 0.166667 0.0917889
11 1 0.5 0.25 0.0608958
12 1 0.5 0.416667 0.0917889
13 1 0 0.5 0.0608958
9 1 1 1 0.0608958
14 1 1 0.666667 0.0917889
15 1 0.5 0.75 0.0608958
16 1 0.5 0.916667 0.0917889
19 1 0.5 0.25 0.122954
21 1 1 0.5 0.122954
17 1 1 1 0.122954
23 1 0.5 0.75 0.122954
18 1 1 0.166666 0.154009
20 1 0.5 0.416667 0.154009
27 1 0.5 0.25 0.185125
29 1 1.40059e-16 0.5 0.185125
25 1 1 1 0.185125
22 1 1 0.666666 0.154009
24 1 0.5 0.916667 0.154009
31 1 0.5 0.75 0.185125
26 1 1 0.166666 0.216197
28 1 0.5 0.416667 0.216197
35 1 0.5 0.25 0.247374
37 1 1 0.499999 0.247374
33 1 1 0.999999 0.247374
30 1 1.5136e-16 0.666666 0.216197
32 1 0.5 0.916667 0.216197
39 1 0.5 0.75 0.247374
34 1 2.89664e-16 0.166666 0.277799
36 1 0.5 0.416667 0.277799
38 1 1 0.666666 0.277799
40 1 0.5 0.916667 0.277799
42 1 1 0.383333 0.342725
43 1 0.5 0.466667 0.312301
41 1 1 0.216666 0.312301
48 1 0.5 0.133333 0.342725
44 1 0.5 0.633333 0.342725
45 1 1.5136e-16 0.716666 0.312301
46 1 1 0.883333 0.342725
47 1 0.5 0.966667 0.312301
51 1 0.5 0.466666 0.373902
49 1 3.55317e-16 0.216666 0.373902
53 1 1 0.716666 0.373902
55 1 0.5 0.966666 0.373902
50 1 3.02719e-16 0.383333 0.404974
59 1 0.5 0.466667 0.436089
57 1 1 0.216666 0.436089
56 1 0.5 0.133333 0.404974
52 1 0.5 0.633333 0.404974
61 1 1 0.716666 0.436089
54 1 1 0.883333 0.404974
63 1 0.5 0.966667 0.436089
58 1 0 0.383333 0.467145
65 1 1 0.216667 0.49831
67 1 0.5 0.466666 0.49831
64 1 0.5 0.133333 0.467145
60 1 0.5 0.633333 0.467145
62 1 1 0.883333 0.467145
69 1 1 0.716667 0.49831
71 1 0.5 0.966666 0.49831
66 1 0 0.383334 0.529204
72 1 0.5 0.133333 0.529204
68 1 0.5 0.633333 0.529204
70 1 0 0.883334 0.529204
74 1 1.5017e-16 0.383334 0.5901
75 1 0.5 0.466667 0.561033
73 1 0 0.216667 0.561033
80 1 0.5 0.133333 0.5901
76 1 0.5 0.633333 0.5901
77 1 0 0.716667 0.561033
78 1 8.66974e-17 0.883334 0.5901
79 1 0.5 0.966667 0.561033
