ITEM: TIMESTEP
367
ITEM: NUMBER OF ATOMS
80
ITEM: BOX BOUNDS pp pp pp
0.0000000000000000e+00 2.9340000000000002e+00
0.0000000000000000e+00 1.0163669400000002e+01
0.0000000000000000e+00 7.4682691523668808e+01
ITEM: ATOMS id type xs ys zs
1 1 0 0 0
2 1 0 0.166667 0.0290672
3 1 0.5 0.25 0
4 1 0.5 0.416667 0.0290672
5 1 0 0.5 0
6 1 1 0.666667 0.0290672
7 1 0.5 0.75 0
8 1 0.5 0.916667 0.0290672
10 1 1 0.166667 0.0917893
11 1 0.5 0.25 0.0608958
12 1 0.5 0.416667 0.0917893
13 1 0 0.5 0.0608958
9 1 1 1 0.0608958
14 1 1 0.666667 0.0917893
15 1 0.5 0.75 0.0608958
16 1 0.5 0.916667 0.0917893
19 1 0.5 0.25 0.122954
21 1 1 0.5 0.122954
17 1 1 1 0.122954
23 1 0.5 0.75 0.122954
18 1 1 0.166666 0.154011
20 1 0.5 0.416667 0.154011
27 1 0.5 0.25 0.185123
29 1 1.40059e-16 0.5 0.185123
25 1 1 1 0.185123
22 1 1 0.666666 0.154011
24 1 0.5 0.916667 0.154011
31 1 0.5 0.75 0.185123
26 1 1 0.166666 0.216198
28 1 0.5 0.416667 0.216198
35 1 0.5 0.25 0.247357
37 1 1 0.499999 0.247357
33 1 1 0.999999 0.247357
30 1 1.5136e-16 0.666666 0.216198
32 1 0.5 0.916667 0.216198
39 1 0.5 0.75 0.247357
34 1 2.89664e-16 0.166666 0.277878
36 1 0.5 0.416667 0.277879
38 1 1 0.666666 0.277878
40 1 0.5 0.916667 0.277879
42 1 1 0.399999 0.342636
43 1 0.5 0.483333 0.312114
41 1 1 0.233333 0.312114
48 1 0.5 0.15 0.342636
44 1 0.5 0.65 0.342636
45 1 1.5136e-16 0.733333 0.312114
46 1 1 0.899999 0.342636
47 1 0.5 0.983333 0.312114
51 1 0.5 0.483333 0.373795
49 1 3.55317e-16 0.233333 0.373795
53 1 1 0.733333 0.373795
55 1 0.5 0.983333 0.373795
50 1 3.02719e-16 0.4 0.40487
59 1 0.5 0.483333 0.435982
57 1 1 0.233333 0.435982
56 1 0.5 0.15 0.40487
52 1 0.5 0.65 0.40487
61 1 1 0.733333 0.435982
54 1 1 0.9 0.40487
63 1 0.5 0.983333 0.435982
58 1 0 0.4 0.467039
65 1 1 0.233334 0.498204
67 1 0.5 0.483333 0.498204
64 1 0.5 0.15 0.467039
60 1 0.5 0.65 0.467039
62 1 1 0.9 0.467039
69 1 1 0.733334 0.498204
71 1 0.5 0.983333 0.498204
66 1 0 0.4 0.529097
72 1 0.5 0.15 0.529097
68 1 0.5 0.65 0.529097
70 1 0 0.9 0.529097
74 1 1.5017e-16 0.4 0.589993
75 1 0.5 0.483333 0.560926
73 1 0 0.233333 0.560926
80 1 0.5 0.15 0.589993
76 1 0.5 0.65 0.589993
77 1 0 0.733333 0.560926
78 1 8.66974e-17 0.9 0.589993
79 1 0.5 0.983333 0.560926
