ITEM: TIMESTEP
128
ITEM: NUMBER OF ATOMS
80
ITEM: BOX BOUNDS pp pp pp
0.0000000000000000e+00 3.5588443270000001e+00
0.0000000000000000e+00 1.2328192633160700e+01
0.0000000000000000e+00 9.8804255508626724e+01
ITEM: ATOMS id type xs ys zs
1 1 0 0 0
2 1 0 0.166667 0.0235035
3 1 0.5 0.25 0
4 1 0.5 0.416667 0.0235035
5 1 0 0.5 0
6 1 2.05329e-17 0.666667 0.0235035
7 1 0.5 0.75 0
8 1 0.5 0.916667 0.0235035
11 1 0.5 0.25 0.047533
10 1 1 0.166667 0.0717265
13 1 1 0.5 0.047533
12 1 0.5 0.416667 0.0717265
14 1 3.33179e-17 0.666667 0.0717265
9 1 1 1 0.047533
15 1 0.5 0.75 0.047533
16 1 0.5 0.916667 0.0717265
19 1 0.5 0.25 0.0959383
21 1 1 0.5 0.0959383
17 1 0 1 0.0959383
23 1 0.5 0.75 0.0959383
18 1 1 0.166666 0.120151
27 1 0.5 0.25 0.144363
20 1 0.5 0.416666 0.120151
22 1 1 0.666666 0.120151
29 1 1 0.5 0.144363
24 1 0.5 0.916666 0.120151
25 1 0 1 0.144363
31 1 0.5 0.75 0.144363
26 1 1 0.166666 0.168556
35 1 0.5 0.25 0.192585
28 1 0.5 0.416666 0.168556
30 1 1 0.666666 0.168556
37 1 1 0.5 0.192585
33 1 1 1 0.192585
32 1 0.5 0.916666 0.168556
39 1 0.5 0.75 0.192585
34 1 1 0.166666 0.216088
36 1 0.5 0.416666 0.216088
38 1 1 0.666666 0.216088
40 1 0.5 0.916666 0.216088
42 1 1 0.316666 0.35379
41 1 1 0.15 0.330287
48 1 0.5 0.0666663 0.35379
43 1 0.5 0.4 0.330287
44 1 0.5 0.566666 0.35379
45 1 0 0.65 0.330287
46 1 1 0.816666 0.35379
47 1 0.5 0.9 0.330287
49 1 1 0.15 0.37782
51 1 0.5 0.4 0.37782
53 1 1 0.65 0.37782
55 1 0.5 0.9 0.37782
50 1 0 0.316666 0.402013
57 1 1 0.149999 0.426224
56 1 0.5 0.0666663 0.402013
59 1 0.5 0.399999 0.426224
52 1 0.5 0.566666 0.402013
61 1 4.04156e-17 0.649999 0.426224
54 1 1 0.816666 0.402013
63 1 0.5 0.899999 0.426224
58 1 0 0.316666 0.450437
65 1 0 0.149999 0.474649
64 1 0.5 0.0666662 0.450437
67 1 0.5 0.399999 0.474649
60 1 0.5 0.566666 0.450437
69 1 1 0.649999 0.474649
62 1 1 0.816666 0.450437
71 1 0.5 0.899999 0.474649
66 1 0 0.316666 0.498842
72 1 0.5 0.066666 0.498842
68 1 0.5 0.566666 0.498842
70 1 1.70968e-17 0.816666 0.498842
73 1 1.80855e-16 0.149999 0.522872
74 1 0 0.316667 0.546375
80 1 0.5 0.066665 0.546375
75 1 0.5 0.399999 0.522872
77 1 8.48732e-17 0.649999 0.522872
76 1 0.5 0.566665 0.546375
79 1 0.5 0.899999 0.522872
78 1 0 0.816667 0.546375
