ITEM: TIMESTEP
478
ITEM: NUMBER OF ATOMS
80
ITEM: BOX BOUNDS pp pp pp
0.0000000000000000e+00 2.9340000000000002e+00
0.0000000000000000e+00 1.0163669400000002e+01
0.0000000000000000e+00 7.4682691523668808e+01
ITEM: ATOMS id type xs ys zs
1 1 0 0 0
2 1 0 0.166667 0.0290676
3 1 0.5 0.25 0
4 1 0.5 0.416667 0.0290676
5 1 0 0.5 0
6 1 1 0.666667 0.0290676
7 1 0.5 0.75 0
8 1 0.5 0.916667 0.0290676
10 1 1 0.166667 0.0917898
11 1 0.5 0.25 0.0608961
12 1 0.5 0.416667 0.0917898
13 1 0 0.5 0.0608961
9 1 1 1 0.0608961
14 1 1 0.666667 0.0917898
15 1 0.5 0.75 0.0608961
16 1 0.5 0.916667 0.0917898
19 1 0.5 0.25 0.122954
21 1 1 0.5 0.122954
17 1 1 1 0.122954
23 1 0.5 0.75 0.122954
18 1 1 0.166666 0.154018
20 1 0.5 0.416667 0.154018
27 1 0.5 0.25 0.185113
29 1 1.40059e-16 0.5 0.185113
25 1 1 1 0.185113
22 1 1 0.666666 0.154018
24 1 0.5 0.916667 0.154018
31 1 0.5 0.75 0.185113
26 1 1 0.166666 0.2162
28 1 0.5 0.416667 0.2162
35 1 0.5 0.25 0.247174
37 1 1 0.499999 0.247174
33 1 1 0.999999 0.247174
30 1 1.5136e-16 0.666666 0.2162
32 1 0.5 0.916667 0.2162
39 1 0.5 0.75 0.247174
34 1 2.89664e-16 0.166666 0.278331
36 1 0.5 0.416667 0.278331
38 1 1 0.666666 0.278331
40 1 0.5 0.916667 0.278331
42 1 1 0.483333 0.341394
41 1 1 0.316666 0.310236
48 1 0.5 0.233333 0.341394
47 1 0.5 0.0666665 0.310236
43 1 0.5 0.566667 0.310236
44 1 0.5 0.733333 0.341394
45 1 1.5136e-16 0.816666 0.310236
46 1 1 0.983333 0.341394
49 1 3.55317e-16 0.316666 0.372368
55 1 0.5 0.0666663 0.372368
51 1 0.5 0.566666 0.372368
53 1 1 0.816666 0.372368
50 1 3.02719e-16 0.483333 0.403456
57 1 1 0.316666 0.434551
56 1 0.5 0.233333 0.403456
63 1 0.5 0.0666665 0.434551
59 1 0.5 0.566667 0.434551
52 1 0.5 0.733333 0.403456
61 1 1 0.816666 0.434551
54 1 1 0.983333 0.403456
58 1 0 0.483333 0.465615
65 1 1 0.316667 0.496779
64 1 0.5 0.233333 0.465615
71 1 0.5 0.0666661 0.496779
67 1 0.5 0.566666 0.496779
60 1 0.5 0.733333 0.465615
62 1 1 0.983333 0.465615
69 1 1 0.816667 0.496779
66 1 0 0.483334 0.527673
72 1 0.5 0.233333 0.527673
68 1 0.5 0.733333 0.527673
70 1 0 0.983334 0.527673
74 1 1.5017e-16 0.483334 0.588569
73 1 0 0.316667 0.559502
80 1 0.5 0.233333 0.588569
79 1 0.5 0.0666667 0.559502
75 1 0.5 0.566667 0.559502
76 1 0.5 0.733333 0.588569
77 1 0 0.816667 0.559502
78 1 8.66974e-17 0.983334 0.588569
