ITEM: TIMESTEP
101
ITEM: NUMBER OF ATOMS
80
ITEM: BOX BOUNDS pp pp pp
0.0000000000000000e+00 2.9340000000000002e+00
0.0000000000000000e+00 1.0163669400000002e+01
0.0000000000000000e+00 7.4682691523668808e+01
ITEM: ATOMS id type xs ys zs
1 1 0 0 0
2 1 0 0.166667 0.0290673
3 1 0.5 0.25 0
4 1 0.5 0.416667 0.0290673
5 1 0 0.5 0
6 1 1 0.666667 0.0290673
7 1 0.5 0.75 0
8 1 0.5 0.916667 0.0290673
10 1 1 0.166667 0.0917894
11 1 0.5 0.25 0.0608957
12 1 0.5 0.416667 0.0917894
13 1 0 0.5 0.0608957
9 1 1 1 0.0608957
14 1 1 0.666667 0.0917894
15 1 0.5 0.75 0.0608957
16 1 0.5 0.916667 0.0917894
19 1 0.5 0.25 0.122954
21 1 1 0.5 0.122954
17 1 1 1 0.122954
23 1 0.5 0.75 0.122954
18 1 1 0.166666 0.154015
20 1 0.5 0.416667 0.154015
27 1 0.5 0.25 0.185119
29 1 1.40059e-16 0.5 0.185119
25 1 1 1 0.185119
22 1 1 0.666666 0.154015
24 1 0.5 0.916667 0.154015
31 1 0.5 0.75 0.185119
26 1 1 0.166666 0.216202
28 1 0.5 0.416667 0.216202
35 1 0.5 0.25 0.247239
37 1 1 0.499999 0.247239
33 1 1 0.999999 0.247239
30 1 1.5136e-16 0.666666 0.216202
32 1 0.5 0.916667 0.216202
39 1 0.5 0.75 0.247239
34 1 2.89664e-16 0.166666 0.278069
36 1 0.5 0.416667 0.278069
38 1 1 0.666666 0.278069
40 1 0.5 0.916667 0.278069
42 1 1 0.216666 0.340647
43 1 0.5 0.3 0.309816
44 1 0.5 0.466667 0.340647
41 1 1 0.0499994 0.309816
45 1 1.5136e-16 0.549999 0.309816
46 1 1 0.716666 0.340647
47 1 0.5 0.8 0.309816
48 1 0.5 0.966667 0.340647
51 1 0.5 0.3 0.371683
49 1 3.55317e-16 0.0499995 0.371683
53 1 1 0.55 0.371683
55 1 0.5 0.8 0.371683
50 1 3.02719e-16 0.216666 0.402766
52 1 0.5 0.466666 0.402766
59 1 0.5 0.3 0.43387
57 1 1 0.0499995 0.43387
61 1 1 0.55 0.43387
54 1 1 0.716666 0.402766
56 1 0.5 0.966666 0.402766
63 1 0.5 0.8 0.43387
58 1 0 0.216667 0.464932
60 1 0.5 0.466667 0.464932
65 1 1 0.0500003 0.496096
67 1 0.5 0.299999 0.496096
62 1 1 0.716667 0.464932
64 1 0.5 0.966667 0.464932
69 1 1 0.55 0.496096
71 1 0.5 0.799999 0.496096
66 1 0 0.216667 0.52699
68 1 0.5 0.466666 0.52699
70 1 0 0.716667 0.52699
72 1 0.5 0.966666 0.52699
74 1 1.5017e-16 0.216667 0.587885
75 1 0.5 0.3 0.558818
76 1 0.5 0.466667 0.587885
73 1 0 0.05 0.558818
77 1 0 0.55 0.558818
78 1 8.66974e-17 0.716667 0.587885
79 1 0.5 0.8 0.558818
80 1 0.5 0.966667 0.587885
