ITEM: TIMESTEP
540
ITEM: NUMBER OF ATOMS
80
ITEM: BOX BOUNDS pp pp pp
0.0000000000000000e+00 2.9340000000000002e+00
0.0000000000000000e+00 1.0163669400000002e+01
0.0000000000000000e+00 7.4682691523668808e+01
ITEM: ATOMS id type xs ys zs
1 1 0 0 0
2 1 0 0.166667 0.0290673
3 1 0.5 0.25 0
4 1 0.5 0.416667 0.0290673
5 1 0 0.5 0
6 1 1 0.666667 0.0290673
7 1 0.5 0.75 0
8 1 0.5 0.916667 0.0290673
10 1 1 0.166667 0.0917895
11 1 0.5 0.25 0.0608957
12 1 0.5 0.416667 0.0917895
13 1 0 0.5 0.0608957
9 1 1 1 0.0608957
14 1 1 0.666667 0.0917895
15 1 0.5 0.75 0.0608957
16 1 0.5 0.916667 0.0917895
19 1 0.5 0.25 0.122954
21 1 1 0.5 0.122953
17 1 1 1 0.122953
23 1 0.5 0.75 0.122954
18 1 1 0.166666 0.154017
20 1 0.5 0.416667 0.154017
27 1 0.5 0.25 0.185117
29 1 1.40059e-16 0.5 0.185116
25 1 1 1 0.185116
22 1 1 0.666666 0.154017
24 1 0.5 0.916667 0.154017
31 1 0.5 0.75 0.185117
26 1 1 0.166666 0.216203
28 1 0.5 0.416667 0.216203
35 1 0.5 0.25 0.247194
37 1 1 0.499999 0.247194
33 1 1 0.999999 0.247194
30 1 1.5136e-16 0.666666 0.216203
32 1 0.5 0.916667 0.216203
39 1 0.5 0.75 0.247194
34 1 2.89664e-16 0.166666 0.278187
36 1 0.5 0.416667 0.278187
38 1 1 0.666666 0.278187
40 1 0.5 0.916667 0.278187
41 1 1 0.383333 0.31024
48 1 0.5 0.3 0.341233
47 1 0.5 0.133333 0.31024
46 1 1 0.0499994 0.341233
42 1 1 0.549999 0.341233
43 1 0.5 0.633333 0.31024
44 1 0.5 0.8 0.341233
45 1 1.5136e-16 0.883333 0.31024
49 1 3.55317e-16 0.383333 0.372224
55 1 0.5 0.133333 0.372224
51 1 0.5 0.633333 0.372224
53 1 1 0.883333 0.372224
57 1 1 0.383333 0.434411
56 1 0.5 0.3 0.403311
63 1 0.5 0.133333 0.434411
54 1 1 0.0499997 0.403311
50 1 3.02719e-16 0.55 0.403311
59 1 0.5 0.633333 0.434411
52 1 0.5 0.8 0.403311
61 1 1 0.883333 0.434411
65 1 1 0.383334 0.496638
64 1 0.5 0.3 0.465474
71 1 0.5 0.133333 0.496638
62 1 1 0.0499998 0.465474
58 1 0 0.55 0.465474
67 1 0.5 0.633333 0.496638
60 1 0.5 0.8 0.465474
69 1 1 0.883334 0.496638
72 1 0.5 0.3 0.527532
70 1 0 0.0500002 0.527532
66 1 0 0.55 0.527532
68 1 0.5 0.8 0.527532
73 1 0 0.383333 0.55936
80 1 0.5 0.3 0.588427
79 1 0.5 0.133333 0.55936
78 1 8.66974e-17 0.0500002 0.588427
74 1 1.5017e-16 0.55 0.588427
75 1 0.5 0.633333 0.55936
76 1 0.5 0.8 0.588427
77 1 0 0.883333 0.55936
