ITEM: TIMESTEP
123
ITEM: NUMBER OF ATOMS
80
ITEM: BOX BOUNDS pp pp pp
0.0000000000000000e+00 2.9340000000000002e+00
0.0000000000000000e+00 1.0163669400000002e+01
0.0000000000000000e+00 7.4682691523668808e+01
ITEM: ATOMS id type xs ys zs
1 1 0 0 0
2 1 0 0.166667 0.0290673
3 1 0.5 0.25 0
4 1 0.5 0.416667 0.0290673
5 1 0 0.5 0
6 1 1 0.666667 0.0290673
7 1 0.5 0.75 0
8 1 0.5 0.916667 0.0290673
10 1 1 0.166667 0.0917892
11 1 0.5 0.25 0.0608957
12 1 0.5 0.416667 0.0917892
13 1 0 0.5 0.0608957
9 1 1 1 0.0608957
14 1 1 0.666667 0.0917892
15 1 0.5 0.75 0.0608957
16 1 0.5 0.916667 0.0917892
19 1 0.5 0.25 0.122954
21 1 1 0.5 0.122954
17 1 1 1 0.122954
23 1 0.5 0.75 0.122954
18 1 1 0.166666 0.154013
20 1 0.5 0.416667 0.154013
27 1 0.5 0.25 0.185123
29 1 1.40059e-16 0.5 0.185123
25 1 1 1 0.185123
22 1 1 0.666666 0.154013
24 1 0.5 0.916667 0.154013
31 1 0.5 0.75 0.185123
26 1 1 0.166666 0.216197
28 1 0.5 0.416667 0.216197
35 1 0.5 0.25 0.247269
37 1 1 0.499999 0.247269
33 1 1 0.999999 0.247269
30 1 1.5136e-16 0.666666 0.216197
32 1 0.5 0.916667 0.216197
39 1 0.5 0.75 0.247269
34 1 2.89664e-16 0.166666 0.277902
36 1 0.5 0.416667 0.277902
38 1 1 0.666666 0.277902
40 1 0.5 0.916667 0.277902
42 1 1 0.233333 0.34089
43 1 0.5 0.316667 0.310256
44 1 0.5 0.483333 0.34089
41 1 1 0.066666 0.310256
45 1 1.5136e-16 0.566666 0.310256
46 1 1 0.733333 0.34089
47 1 0.5 0.816667 0.310256
48 1 0.5 0.983333 0.34089
51 1 0.5 0.316666 0.371962
49 1 3.55317e-16 0.0666662 0.371962
53 1 1 0.566666 0.371962
55 1 0.5 0.816666 0.371962
50 1 3.02719e-16 0.233333 0.403036
52 1 0.5 0.483333 0.403036
59 1 0.5 0.316667 0.434147
57 1 1 0.0666662 0.434147
61 1 1 0.566666 0.434147
54 1 1 0.733333 0.403036
56 1 0.5 0.983333 0.403036
63 1 0.5 0.816667 0.434147
58 1 0 0.233333 0.465207
60 1 0.5 0.483333 0.465207
65 1 1 0.0666669 0.496372
67 1 0.5 0.316666 0.496372
62 1 1 0.733333 0.465207
64 1 0.5 0.983333 0.465207
69 1 1 0.566667 0.496372
71 1 0.5 0.816666 0.496372
66 1 0 0.233334 0.527265
68 1 0.5 0.483333 0.527265
70 1 0 0.733334 0.527265
72 1 0.5 0.983333 0.527265
74 1 1.5017e-16 0.233334 0.588161
75 1 0.5 0.316667 0.559094
76 1 0.5 0.483333 0.588161
73 1 0 0.0666666 0.559094
77 1 0 0.566667 0.559094
78 1 8.66974e-17 0.733334 0.588161
79 1 0.5 0.816667 0.559094
80 1 0.5 0.983333 0.588161
