ITEM: TIMESTEP
80
ITEM: NUMBER OF ATOMS
80
ITEM: BOX BOUNDS pp pp pp
0.0000000000000000e+00 2.9340000000000002e+00
0.0000000000000000e+00 1.0163669400000002e+01
0.0000000000000000e+00 7.4682691523668808e+01
ITEM: ATOMS id type xs ys zs
1 1 0 0 0
2 1 0 0.166667 0.0290667
3 1 0.5 0.25 0
4 1 0.5 0.416667 0.0290667
5 1 0 0.5 0
6 1 1 0.666667 0.0290667
7 1 0.5 0.75 0
8 1 0.5 0.916667 0.0290667
10 1 1 0.166667 0.0917876
11 1 0.5 0.25 0.0608941
12 1 0.5 0.416667 0.0917876
13 1 0 0.5 0.0608941
9 1 1 1 0.0608941
14 1 1 0.666667 0.0917876
15 1 0.5 0.75 0.0608941
16 1 0.5 0.916667 0.0917876
19 1 0.5 0.25 0.122951
21 1 1 0.5 0.122951
17 1 1 1 0.122951
23 1 0.5 0.75 0.122951
18 1 1 0.166666 0.154012
20 1 0.5 0.416667 0.154012
27 1 0.5 0.25 0.18511
29 1 1.40059e-16 0.5 0.18511
25 1 1 1 0.18511
22 1 1 0.666666 0.154012
24 1 0.5 0.916667 0.154012
31 1 0.5 0.75 0.18511
26 1 1 0.166666 0.216194
28 1 0.5 0.416667 0.216194
35 1 0.5 0.25 0.247244
37 1 1 0.499999 0.247244
33 1 1 0.999999 0.247244
30 1 1.5136e-16 0.666666 0.216194
32 1 0.5 0.916667 0.216194
39 1 0.5 0.75 0.247244
34 1 2.89664e-16 0.166666 0.278243
36 1 0.5 0.416667 0.278243
38 1 1 0.666666 0.278243
40 1 0.5 0.916667 0.278243
42 1 1 0.199999 0.340674
43 1 0.5 0.283333 0.309674
44 1 0.5 0.45 0.340674
41 1 1 0.0333327 0.309674
45 1 1.5136e-16 0.533333 0.309674
46 1 1 0.699999 0.340674
47 1 0.5 0.783333 0.309674
48 1 0.5 0.95 0.340674
51 1 0.5 0.283333 0.371723
49 1 3.55317e-16 0.0333329 0.371723
53 1 1 0.533333 0.371723
55 1 0.5 0.783333 0.371723
50 1 3.02719e-16 0.2 0.402807
52 1 0.5 0.45 0.402807
59 1 0.5 0.283333 0.433905
57 1 1 0.0333329 0.433905
61 1 1 0.533333 0.433905
54 1 1 0.7 0.402807
56 1 0.5 0.95 0.402807
63 1 0.5 0.783333 0.433905
58 1 0 0.2 0.464967
60 1 0.5 0.45 0.464967
65 1 1 0.0333336 0.496132
67 1 0.5 0.283333 0.496132
62 1 1 0.7 0.464967
64 1 0.5 0.95 0.464967
69 1 1 0.533334 0.496132
71 1 0.5 0.783333 0.496132
66 1 0 0.2 0.527025
68 1 0.5 0.45 0.527025
70 1 0 0.7 0.527025
72 1 0.5 0.95 0.527025
74 1 1.5017e-16 0.2 0.587921
75 1 0.5 0.283333 0.558854
76 1 0.5 0.45 0.587921
73 1 0 0.0333333 0.558854
77 1 0 0.533333 0.558854
78 1 8.66974e-17 0.7 0.587921
79 1 0.5 0.783333 0.558854
80 1 0.5 0.95 0.587921
