ITEM: TIMESTEP
521
ITEM: NUMBER OF ATOMS
80
ITEM: BOX BOUNDS pp pp pp
0.0000000000000000e+00 2.9340000000000002e+00
0.0000000000000000e+00 1.0163669400000002e+01
0.0000000000000000e+00 7.4682691523668808e+01
ITEM: ATOMS id type xs ys zs
1 1 0 0 0
2 1 0 0.166667 0.0290673
3 1 0.5 0.25 0
4 1 0.5 0.416667 0.0290673
5 1 0 0.5 0
6 1 1 0.666667 0.0290673
7 1 0.5 0.75 0
8 1 0.5 0.916667 0.0290673
10 1 1 0.166667 0.0917894
11 1 0.5 0.25 0.0608956
12 1 0.5 0.416667 0.0917894
13 1 0 0.5 0.0608956
9 1 1 1 0.0608956
14 1 1 0.666667 0.0917894
15 1 0.5 0.75 0.0608956
16 1 0.5 0.916667 0.0917894
19 1 0.5 0.25 0.122953
21 1 1 0.5 0.122953
17 1 1 1 0.122953
23 1 0.5 0.75 0.122953
18 1 1 0.166666 0.154017
20 1 0.5 0.416667 0.154017
27 1 0.5 0.25 0.185114
29 1 1.40059e-16 0.5 0.185114
25 1 1 1 0.185114
22 1 1 0.666666 0.154017
24 1 0.5 0.916667 0.154017
31 1 0.5 0.75 0.185114
26 1 1 0.166666 0.216201
28 1 0.5 0.416667 0.216201
35 1 0.5 0.25 0.247186
37 1 1 0.499999 0.247186
33 1 1 0.999999 0.247186
30 1 1.5136e-16 0.666666 0.216201
32 1 0.5 0.916667 0.216201
39 1 0.5 0.75 0.247186
34 1 2.89664e-16 0.166666 0.278268
36 1 0.5 0.416667 0.278268
38 1 1 0.666666 0.278268
40 1 0.5 0.916667 0.278268
41 1 1 0.366666 0.310238
48 1 0.5 0.283333 0.34132
47 1 0.5 0.116667 0.310238
46 1 1 0.0333328 0.34132
42 1 1 0.533333 0.34132
43 1 0.5 0.616667 0.310238
44 1 0.5 0.783333 0.34132
45 1 1.5136e-16 0.866666 0.310238
49 1 3.55317e-16 0.366666 0.372305
55 1 0.5 0.116666 0.372305
51 1 0.5 0.616666 0.372305
53 1 1 0.866666 0.372305
57 1 1 0.366666 0.434489
56 1 0.5 0.283333 0.403392
63 1 0.5 0.116667 0.434489
54 1 1 0.033333 0.403392
50 1 3.02719e-16 0.533333 0.403392
59 1 0.5 0.616667 0.434489
52 1 0.5 0.783333 0.403392
61 1 1 0.866666 0.434489
65 1 1 0.366667 0.496716
64 1 0.5 0.283333 0.465552
71 1 0.5 0.116666 0.496716
62 1 1 0.0333332 0.465552
58 1 0 0.533333 0.465552
67 1 0.5 0.616666 0.496716
60 1 0.5 0.783333 0.465552
69 1 1 0.866667 0.496716
72 1 0.5 0.283333 0.52761
70 1 0 0.0333336 0.52761
66 1 0 0.533334 0.52761
68 1 0.5 0.783333 0.52761
73 1 0 0.366667 0.559439
80 1 0.5 0.283333 0.588506
79 1 0.5 0.116667 0.559438
78 1 8.66974e-17 0.0333336 0.588506
74 1 1.5017e-16 0.533334 0.588506
75 1 0.5 0.616667 0.559438
76 1 0.5 0.783333 0.588506
77 1 0 0.866667 0.559439
