ITEM: TIMESTEP
177
ITEM: NUMBER OF ATOMS
80
ITEM: BOX BOUNDS pp pp pp
0.0000000000000000e+00 2.9340000000000002e+00
0.0000000000000000e+00 1.0163669400000002e+01
0.0000000000000000e+00 7.4682691523668808e+01
ITEM: ATOMS id type xs ys zs
1 1 0 0 0
2 1 0 0.166667 0.0290672
3 1 0.5 0.25 0
4 1 0.5 0.416667 0.0290672
5 1 0 0.5 0
6 1 1 0.666667 0.0290672
7 1 0.5 0.75 0
8 1 0.5 0.916667 0.0290672
10 1 1 0.166667 0.0917888
11 1 0.5 0.25 0.0608957
12 1 0.5 0.416667 0.0917888
13 1 0 0.5 0.0608957
9 1 1 1 0.0608957
14 1 1 0.666667 0.0917888
15 1 0.5 0.75 0.0608957
16 1 0.5 0.916667 0.0917888
19 1 0.5 0.25 0.122953
21 1 1 0.5 0.122953
17 1 1 1 0.122953
23 1 0.5 0.75 0.122953
18 1 1 0.166666 0.15401
20 1 0.5 0.416667 0.15401
27 1 0.5 0.25 0.185125
29 1 1.40059e-16 0.5 0.185125
25 1 1 1 0.185125
22 1 1 0.666666 0.15401
24 1 0.5 0.916667 0.15401
31 1 0.5 0.75 0.185125
26 1 1 0.166666 0.216192
28 1 0.5 0.416667 0.216192
35 1 0.5 0.25 0.247348
37 1 1 0.499999 0.247348
33 1 1 0.999999 0.247348
30 1 1.5136e-16 0.666666 0.216192
32 1 0.5 0.916667 0.216192
39 1 0.5 0.75 0.247348
34 1 2.89664e-16 0.166666 0.277796
36 1 0.5 0.416667 0.277796
38 1 1 0.666666 0.277796
40 1 0.5 0.916667 0.277796
42 1 1 0.266666 0.342118
43 1 0.5 0.35 0.311671
41 1 1 0.0999994 0.311671
48 1 0.5 0.0166666 0.342118
44 1 0.5 0.516667 0.342118
45 1 1.5136e-16 0.599999 0.311671
46 1 1 0.766666 0.342118
47 1 0.5 0.85 0.311671
51 1 0.5 0.35 0.373275
49 1 3.55317e-16 0.0999995 0.373275
53 1 1 0.6 0.373275
55 1 0.5 0.85 0.373275
50 1 3.02719e-16 0.266666 0.404343
59 1 0.5 0.35 0.435459
57 1 1 0.0999995 0.435459
56 1 0.5 0.0166664 0.404343
52 1 0.5 0.516666 0.404343
61 1 1 0.6 0.435459
54 1 1 0.766666 0.404343
63 1 0.5 0.85 0.435459
58 1 0 0.266667 0.466515
65 1 1 0.1 0.49768
67 1 0.5 0.349999 0.49768
64 1 0.5 0.0166665 0.466515
60 1 0.5 0.516667 0.466515
62 1 1 0.766667 0.466515
69 1 1 0.6 0.49768
71 1 0.5 0.849999 0.49768
66 1 0 0.266667 0.528574
72 1 0.5 0.0166665 0.528574
68 1 0.5 0.516666 0.528574
70 1 0 0.766667 0.528574
74 1 1.5017e-16 0.266667 0.589469
75 1 0.5 0.35 0.560402
73 1 0 0.1 0.560402
80 1 0.5 0.0166666 0.589469
76 1 0.5 0.516667 0.589469
77 1 0 0.6 0.560402
78 1 8.66974e-17 0.766667 0.589469
79 1 0.5 0.85 0.560402
