ITEM: TIMESTEP
298
ITEM: NUMBER OF ATOMS
80
ITEM: BOX BOUNDS pp pp pp
0.0000000000000000e+00 2.9340000000000002e+00
0.0000000000000000e+00 1.0163669400000002e+01
0.0000000000000000e+00 7.4682691523668808e+01
ITEM: ATOMS id type xs ys zs
1 1 0 0 0
2 1 0 0.166667 0.0290672
3 1 0.5 0.25 0
4 1 0.5 0.416667 0.0290672
5 1 0 0.5 0
6 1 1 0.666667 0.0290672
7 1 0.5 0.75 0
8 1 0.5 0.916667 0.0290672
10 1 1 0.166667 0.0917891
11 1 0.5 0.25 0.0608959
12 1 0.5 0.416667 0.0917891
13 1 0 0.5 0.0608959
9 1 1 1 0.0608959
14 1 1 0.666667 0.0917891
15 1 0.5 0.75 0.0608959
16 1 0.5 0.916667 0.0917891
19 1 0.5 0.25 0.122955
21 1 1 0.5 0.122955
17 1 1 1 0.122955
23 1 0.5 0.75 0.122955
18 1 1 0.166666 0.154008
20 1 0.5 0.416667 0.154008
27 1 0.5 0.25 0.185127
29 1 1.40059e-16 0.5 0.185127
25 1 1 1 0.185127
22 1 1 0.666666 0.154008
24 1 0.5 0.916667 0.154008
31 1 0.5 0.75 0.185127
26 1 1 0.166666 0.216192
28 1 0.5 0.416667 0.216192
35 1 0.5 0.25 0.247442
37 1 1 0.499999 0.247442
33 1 1 0.999999 0.247442
30 1 1.5136e-16 0.666666 0.216192
32 1 0.5 0.916667 0.216192
39 1 0.5 0.75 0.247442
34 1 2.89664e-16 0.166666 0.277714
36 1 0.5 0.416667 0.277714
38 1 1 0.666666 0.277714
40 1 0.5 0.916667 0.277714
42 1 1 0.349999 0.343199
43 1 0.5 0.433333 0.312927
41 1 1 0.183333 0.312926
48 1 0.5 0.0999999 0.343199
44 1 0.5 0.6 0.343199
45 1 1.5136e-16 0.683333 0.312926
46 1 1 0.849999 0.343199
47 1 0.5 0.933333 0.312927
51 1 0.5 0.433333 0.374449
49 1 3.55317e-16 0.183333 0.374449
53 1 1 0.683333 0.374449
55 1 0.5 0.933333 0.374449
50 1 3.02719e-16 0.35 0.405513
59 1 0.5 0.433333 0.436633
57 1 1 0.183333 0.436633
56 1 0.5 0.0999997 0.405513
52 1 0.5 0.6 0.405513
61 1 1 0.683333 0.436633
54 1 1 0.85 0.405513
63 1 0.5 0.933333 0.436633
58 1 0 0.35 0.467686
65 1 1 0.183334 0.498851
67 1 0.5 0.433333 0.498851
64 1 0.5 0.0999999 0.467686
60 1 0.5 0.6 0.467686
62 1 1 0.85 0.467686
69 1 1 0.683334 0.498851
71 1 0.5 0.933333 0.498851
66 1 0 0.35 0.529745
72 1 0.5 0.0999998 0.529745
68 1 0.5 0.6 0.529745
70 1 0 0.85 0.529745
74 1 1.5017e-16 0.35 0.59064
75 1 0.5 0.433333 0.561573
73 1 0 0.183333 0.561573
80 1 0.5 0.1 0.59064
76 1 0.5 0.6 0.59064
77 1 0 0.683333 0.561573
78 1 8.66974e-17 0.85 0.59064
79 1 0.5 0.933333 0.561573
