ITEM: TIMESTEP
39
ITEM: NUMBER OF ATOMS
80
ITEM: BOX BOUNDS pp pp pp
0.0000000000000000e+00 2.9340000000000002e+00
0.0000000000000000e+00 1.0163669400000002e+01
0.0000000000000000e+00 7.4682691523668808e+01
ITEM: ATOMS id type xs ys zs
1 1 0 0 0
2 1 0 0.166667 0.0290683
3 1 0.5 0.25 0
4 1 0.5 0.416667 0.0290684
5 1 0 0.5 0
6 1 1 0.666667 0.0290683
7 1 0.5 0.75 0
8 1 0.5 0.916667 0.0290684
10 1 1 0.166667 0.0917931
11 1 0.5 0.25 0.0608984
12 1 0.5 0.416667 0.0917931
13 1 0 0.5 0.0608983
9 1 1 1 0.0608983
14 1 1 0.666667 0.0917931
15 1 0.5 0.75 0.0608984
16 1 0.5 0.916667 0.0917931
19 1 0.5 0.25 0.122958
21 1 1 0.5 0.122958
17 1 1 1 0.122958
23 1 0.5 0.75 0.122958
18 1 1 0.166666 0.15402
20 1 0.5 0.416667 0.15402
27 1 0.5 0.25 0.185116
29 1 1.40059e-16 0.5 0.185116
25 1 1 1 0.185116
22 1 1 0.666666 0.15402
24 1 0.5 0.916667 0.15402
31 1 0.5 0.75 0.185116
26 1 1 0.166666 0.216201
28 1 0.5 0.416667 0.216201
35 1 0.5 0.25 0.247289
37 1 1 0.499999 0.247289
33 1 1 0.999999 0.247289
30 1 1.5136e-16 0.666666 0.216201
32 1 0.5 0.916667 0.216201
39 1 0.5 0.75 0.247289
34 1 2.89664e-16 0.166666 0.278376
36 1 0.5 0.416667 0.278376
38 1 1 0.666666 0.278376
40 1 0.5 0.916667 0.278376
42 1 1 0.166666 0.340551
43 1 0.5 0.25 0.309464
44 1 0.5 0.416667 0.340551
45 1 1.5136e-16 0.499999 0.309464
41 1 1 0.999999 0.309464
46 1 1 0.666666 0.340551
47 1 0.5 0.75 0.309464
48 1 0.5 0.916667 0.340551
51 1 0.5 0.25 0.371639
53 1 1 0.5 0.371639
49 1 3.55317e-16 1 0.371639
55 1 0.5 0.75 0.371639
50 1 3.02719e-16 0.166666 0.402723
52 1 0.5 0.416666 0.402723
59 1 0.5 0.25 0.433817
61 1 1 0.5 0.433818
57 1 1 1 0.433818
54 1 1 0.666666 0.402723
56 1 0.5 0.916666 0.402723
63 1 0.5 0.75 0.433817
58 1 0 0.166667 0.464879
60 1 0.5 0.416667 0.464879
65 1 1 2.65976e-07 0.496043
67 1 0.5 0.249999 0.496043
62 1 1 0.666667 0.464879
64 1 0.5 0.916667 0.464879
69 1 1 0.5 0.496043
71 1 0.5 0.749999 0.496043
66 1 0 0.166667 0.526937
68 1 0.5 0.416666 0.526937
70 1 0 0.666667 0.526937
72 1 0.5 0.916666 0.526937
74 1 1.5017e-16 0.166667 0.587833
75 1 0.5 0.25 0.558765
76 1 0.5 0.416667 0.587833
77 1 0 0.5 0.558765
73 1 0 1 0.558765
78 1 8.66974e-17 0.666667 0.587833
79 1 0.5 0.75 0.558765
80 1 0.5 0.916667 0.587833
