ITEM: TIMESTEP
569
ITEM: NUMBER OF ATOMS
80
ITEM: BOX BOUNDS pp pp pp
0.0000000000000000e+00 2.9340000000000002e+00
0.0000000000000000e+00 1.0163669400000002e+01
0.0000000000000000e+00 7.4682691523668808e+01
ITEM: ATOMS id type xs ys zs
1 1 0 0 0
2 1 0 0.166667 0.0290685
3 1 0.5 0.25 0
4 1 0.5 0.416667 0.0290685
5 1 0 0.5 0
6 1 1 0.666667 0.0290685
7 1 0.5 0.75 0
8 1 0.5 0.916667 0.0290685
10 1 1 0.166667 0.0917938
11 1 0.5 0.25 0.0608987
12 1 0.5 0.416667 0.0917938
13 1 0 0.5 0.0608987
9 1 1 1 0.0608987
14 1 1 0.666667 0.0917938
15 1 0.5 0.75 0.0608987
16 1 0.5 0.916667 0.0917938
19 1 0.5 0.25 0.122959
21 1 1 0.5 0.122959
17 1 1 1 0.122959
23 1 0.5 0.75 0.122959
18 1 1 0.166666 0.154022
20 1 0.5 0.416667 0.154022
27 1 0.5 0.25 0.185127
29 1 1.40059e-16 0.5 0.185127
25 1 1 1 0.185127
22 1 1 0.666666 0.154022
24 1 0.5 0.916667 0.154022
31 1 0.5 0.75 0.185127
26 1 1 0.166666 0.21621
28 1 0.5 0.416667 0.21621
35 1 0.5 0.25 0.247225
37 1 1 0.499999 0.247225
33 1 1 0.999999 0.247225
30 1 1.5136e-16 0.666666 0.21621
32 1 0.5 0.916667 0.21621
39 1 0.5 0.75 0.247225
34 1 2.89664e-16 0.166666 0.278083
36 1 0.5 0.416667 0.278083
38 1 1 0.666666 0.278083
40 1 0.5 0.916667 0.278083
41 1 1 0.416666 0.310393
48 1 0.5 0.333333 0.341251
47 1 0.5 0.166667 0.310393
46 1 1 0.0833328 0.341251
42 1 1 0.583333 0.341251
43 1 0.5 0.666667 0.310393
44 1 0.5 0.833333 0.341251
45 1 1.5136e-16 0.916666 0.310393
49 1 3.55317e-16 0.416666 0.372266
55 1 0.5 0.166666 0.372266
51 1 0.5 0.666666 0.372266
53 1 1 0.916666 0.372266
57 1 1 0.416666 0.434454
56 1 0.5 0.333333 0.40335
63 1 0.5 0.166667 0.434454
54 1 1 0.083333 0.40335
50 1 3.02719e-16 0.583333 0.40335
59 1 0.5 0.666667 0.434454
52 1 0.5 0.833333 0.40335
61 1 1 0.916666 0.434454
65 1 1 0.416667 0.496681
64 1 0.5 0.333333 0.465517
71 1 0.5 0.166666 0.496681
62 1 1 0.0833332 0.465517
58 1 0 0.583333 0.465517
67 1 0.5 0.666666 0.496681
60 1 0.5 0.833333 0.465517
69 1 1 0.916667 0.496681
72 1 0.5 0.333333 0.527574
70 1 0 0.0833336 0.527575
66 1 0 0.583334 0.527575
68 1 0.5 0.833333 0.527574
73 1 0 0.416667 0.559403
80 1 0.5 0.333333 0.58847
79 1 0.5 0.166667 0.559403
78 1 8.66974e-17 0.0833336 0.58847
74 1 1.5017e-16 0.583334 0.58847
75 1 0.5 0.666667 0.559403
76 1 0.5 0.833333 0.58847
77 1 0 0.916667 0.559403
