ITEM: TIMESTEP
321
ITEM: NUMBER OF ATOMS
80
ITEM: BOX BOUNDS pp pp pp
0.0000000000000000e+00 2.9340000000000002e+00
0.0000000000000000e+00 1.0163669400000002e+01
0.0000000000000000e+00 7.4682691523668808e+01
ITEM: ATOMS id type xs ys zs
1 1 0 0 0
2 1 0 0.166667 0.0290673
3 1 0.5 0.25 0
4 1 0.5 0.416667 0.0290673
5 1 0 0.5 0
6 1 1 0.666667 0.0290673
7 1 0.5 0.75 0
8 1 0.5 0.916667 0.0290673
10 1 1 0.166667 0.0917891
11 1 0.5 0.25 0.0608958
12 1 0.5 0.416667 0.0917891
13 1 0 0.5 0.0608958
9 1 1 1 0.0608958
14 1 1 0.666667 0.0917891
15 1 0.5 0.75 0.0608958
16 1 0.5 0.916667 0.0917891
19 1 0.5 0.25 0.122954
21 1 1 0.5 0.122954
17 1 1 1 0.122954
23 1 0.5 0.75 0.122954
18 1 1 0.166666 0.154009
20 1 0.5 0.416667 0.154009
27 1 0.5 0.25 0.185127
29 1 1.40059e-16 0.5 0.185126
25 1 1 1 0.185126
22 1 1 0.666666 0.154009
24 1 0.5 0.916667 0.154009
31 1 0.5 0.75 0.185127
26 1 1 0.166666 0.216196
28 1 0.5 0.416667 0.216196
35 1 0.5 0.25 0.247401
37 1 1 0.499999 0.247401
33 1 1 0.999999 0.247401
30 1 1.5136e-16 0.666666 0.216196
32 1 0.5 0.916667 0.216196
39 1 0.5 0.75 0.247401
34 1 2.89664e-16 0.166666 0.277737
36 1 0.5 0.416667 0.277737
38 1 1 0.666666 0.277737
40 1 0.5 0.916667 0.277737
42 1 1 0.366666 0.342925
43 1 0.5 0.45 0.312589
41 1 1 0.199999 0.312589
48 1 0.5 0.116667 0.342925
44 1 0.5 0.616667 0.342925
45 1 1.5136e-16 0.699999 0.312589
46 1 1 0.866666 0.342925
47 1 0.5 0.95 0.312589
51 1 0.5 0.45 0.37413
49 1 3.55317e-16 0.2 0.37413
53 1 1 0.7 0.37413
55 1 0.5 0.95 0.37413
50 1 3.02719e-16 0.366666 0.405199
59 1 0.5 0.45 0.436317
57 1 1 0.2 0.436317
56 1 0.5 0.116666 0.405199
52 1 0.5 0.616666 0.405199
61 1 1 0.7 0.436317
54 1 1 0.866666 0.405199
63 1 0.5 0.95 0.436317
58 1 0 0.366667 0.467372
65 1 1 0.2 0.498537
67 1 0.5 0.449999 0.498537
64 1 0.5 0.116667 0.467372
60 1 0.5 0.616667 0.467372
62 1 1 0.866667 0.467372
69 1 1 0.7 0.498537
71 1 0.5 0.949999 0.498537
66 1 0 0.366667 0.529431
72 1 0.5 0.116666 0.529431
68 1 0.5 0.616666 0.529431
70 1 0 0.866667 0.529431
74 1 1.5017e-16 0.366667 0.590327
75 1 0.5 0.45 0.561259
73 1 0 0.2 0.561259
80 1 0.5 0.116667 0.590327
76 1 0.5 0.616667 0.590327
77 1 0 0.7 0.561259
78 1 8.66974e-17 0.866667 0.590327
79 1 0.5 0.95 0.561259
