ITEM: TIMESTEP
122
ITEM: NUMBER OF ATOMS
80
ITEM: BOX BOUNDS pp pp pp
0.0000000000000000e+00 3.5588443270000001e+00
0.0000000000000000e+00 1.2328192633160700e+01
0.0000000000000000e+00 9.8804255508626724e+01
ITEM: ATOMS id type xs ys zs
1 1 0 0 0
2 1 0 0.166667 0.0235035
3 1 0.5 0.25 0
4 1 0.5 0.416667 0.0235035
5 1 0 0.5 0
6 1 2.05329e-17 0.666667 0.0235035
7 1 0.5 0.75 0
8 1 0.5 0.916667 0.0235035
11 1 0.5 0.25 0.0475331
10 1 1 0.166667 0.0717266
13 1 1 0.5 0.0475331
12 1 0.5 0.416667 0.0717266
14 1 3.33179e-17 0.666667 0.0717266
9 1 1 1 0.0475331
15 1 0.5 0.75 0.0475331
16 1 0.5 0.916667 0.0717266
19 1 0.5 0.25 0.0959385
21 1 1 0.5 0.0959385
17 1 0 1 0.0959385
23 1 0.5 0.75 0.0959385
18 1 1 0.166666 0.120151
27 1 0.5 0.25 0.144363
20 1 0.5 0.416666 0.120151
22 1 1 0.666666 0.120151
29 1 1 0.5 0.144363
24 1 0.5 0.916666 0.120151
25 1 0 1 0.144363
31 1 0.5 0.75 0.144363
26 1 1 0.166666 0.168556
35 1 0.5 0.25 0.192585
28 1 0.5 0.416666 0.168556
30 1 1 0.666666 0.168556
37 1 1 0.5 0.192585
33 1 1 1 0.192585
32 1 0.5 0.916666 0.168556
39 1 0.5 0.75 0.192585
34 1 1 0.166666 0.216088
36 1 0.5 0.416666 0.216088
38 1 1 0.666666 0.216088
40 1 0.5 0.916666 0.216088
42 1 1 0.216666 0.35379
43 1 0.5 0.3 0.330287
41 1 1 0.0499995 0.330287
44 1 0.5 0.466666 0.35379
45 1 0 0.55 0.330287
46 1 1 0.716666 0.35379
47 1 0.5 0.8 0.330287
48 1 0.5 0.966666 0.35379
51 1 0.5 0.3 0.377819
49 1 1 0.0499995 0.377819
53 1 1 0.55 0.377819
55 1 0.5 0.8 0.377819
50 1 0 0.216666 0.402012
59 1 0.5 0.299999 0.426224
57 1 1 0.0499994 0.426224
52 1 0.5 0.466666 0.402012
61 1 4.04156e-17 0.549999 0.426224
54 1 1 0.716666 0.402012
56 1 0.5 0.966666 0.402012
63 1 0.5 0.799999 0.426224
58 1 0 0.216666 0.450437
67 1 0.5 0.299999 0.474649
65 1 0 0.0499993 0.474649
60 1 0.5 0.466666 0.450437
69 1 1 0.549999 0.474649
62 1 1 0.716666 0.450437
64 1 0.5 0.966666 0.450437
71 1 0.5 0.799999 0.474649
66 1 0 0.216666 0.498842
68 1 0.5 0.466666 0.498842
70 1 1.70968e-17 0.716666 0.498842
72 1 0.5 0.966666 0.498842
75 1 0.5 0.299999 0.522872
73 1 1.80855e-16 0.0499991 0.522872
74 1 0 0.216667 0.546375
77 1 8.48732e-17 0.549999 0.522872
76 1 0.5 0.466665 0.546375
79 1 0.5 0.799999 0.522872
78 1 0 0.716667 0.546375
80 1 0.5 0.966665 0.546375
