ITEM: TIMESTEP
649
ITEM: NUMBER OF ATOMS
80
ITEM: BOX BOUNDS pp pp pp
0.0000000000000000e+00 2.9340000000000002e+00
0.0000000000000000e+00 1.0163669400000002e+01
0.0000000000000000e+00 7.4682691523668808e+01
ITEM: ATOMS id type xs ys zs
1 1 0 0 0
2 1 0 0.166667 0.0290675
3 1 0.5 0.25 0
4 1 0.5 0.416667 0.0290674
5 1 0 0.5 0
6 1 1 0.666667 0.0290675
7 1 0.5 0.75 0
8 1 0.5 0.916667 0.0290674
10 1 1 0.166667 0.0917899
11 1 0.5 0.25 0.0608959
12 1 0.5 0.416667 0.0917899
13 1 0 0.5 0.0608959
9 1 1 1 0.0608959
14 1 1 0.666667 0.0917899
15 1 0.5 0.75 0.0608959
16 1 0.5 0.916667 0.0917899
19 1 0.5 0.25 0.122954
21 1 1 0.5 0.122954
17 1 1 1 0.122954
23 1 0.5 0.75 0.122954
18 1 1 0.166666 0.154016
20 1 0.5 0.416667 0.154016
27 1 0.5 0.25 0.185111
29 1 1.40059e-16 0.5 0.185111
25 1 1 1 0.185111
22 1 1 0.666666 0.154016
24 1 0.5 0.916667 0.154016
31 1 0.5 0.75 0.185111
26 1 1 0.166666 0.216194
28 1 0.5 0.416667 0.216194
35 1 0.5 0.25 0.247274
37 1 1 0.499999 0.247274
33 1 1 0.999999 0.247274
30 1 1.5136e-16 0.666666 0.216194
32 1 0.5 0.916667 0.216194
39 1 0.5 0.75 0.247274
34 1 2.89664e-16 0.166666 0.278339
36 1 0.5 0.416667 0.278339
38 1 1 0.666666 0.278339
40 1 0.5 0.916667 0.278339
41 1 1 0.483333 0.309557
48 1 0.5 0.4 0.340622
47 1 0.5 0.233333 0.309557
46 1 1 0.149999 0.340622
42 1 1 0.649999 0.340622
43 1 0.5 0.733333 0.309557
44 1 0.5 0.9 0.340622
45 1 1.5136e-16 0.983333 0.309557
49 1 3.55317e-16 0.483333 0.371702
55 1 0.5 0.233333 0.371702
51 1 0.5 0.733333 0.371702
53 1 1 0.983333 0.371702
57 1 1 0.483333 0.43388
56 1 0.5 0.4 0.402785
63 1 0.5 0.233333 0.43388
54 1 1 0.15 0.402785
50 1 3.02719e-16 0.65 0.402785
59 1 0.5 0.733333 0.43388
52 1 0.5 0.9 0.402785
61 1 1 0.983333 0.43388
65 1 1 0.483334 0.496106
64 1 0.5 0.4 0.464941
71 1 0.5 0.233333 0.496106
62 1 1 0.15 0.464941
58 1 0 0.65 0.464941
67 1 0.5 0.733333 0.496106
60 1 0.5 0.9 0.464941
69 1 1 0.983334 0.496106
72 1 0.5 0.4 0.526999
70 1 0 0.15 0.527
66 1 0 0.65 0.527
68 1 0.5 0.9 0.526999
73 1 0 0.483333 0.558828
80 1 0.5 0.4 0.587895
79 1 0.5 0.233333 0.558828
78 1 8.66974e-17 0.15 0.587895
74 1 1.5017e-16 0.65 0.587895
75 1 0.5 0.733333 0.558828
76 1 0.5 0.9 0.587895
77 1 0 0.983333 0.558828
