ITEM: TIMESTEP
669
ITEM: NUMBER OF ATOMS
80
ITEM: BOX BOUNDS pp pp pp
0.0000000000000000e+00 2.9340000000000002e+00
0.0000000000000000e+00 1.0163669400000002e+01
0.0000000000000000e+00 7.4682691523668808e+01
ITEM: ATOMS id type xs ys zs
1 1 0 0 0
2 1 0 0.166667 0.0290673
3 1 0.5 0.25 0
4 1 0.5 0.416667 0.0290673
5 1 0 0.5 0
6 1 1 0.666667 0.0290673
7 1 0.5 0.75 0
8 1 0.5 0.916667 0.0290673
10 1 1 0.166667 0.0917896
11 1 0.5 0.25 0.0608957
12 1 0.5 0.416667 0.0917896
13 1 0 0.5 0.0608957
9 1 1 1 0.0608957
14 1 1 0.666667 0.0917896
15 1 0.5 0.75 0.0608957
16 1 0.5 0.916667 0.0917895
19 1 0.5 0.25 0.122954
21 1 1 0.5 0.122954
17 1 1 1 0.122954
23 1 0.5 0.75 0.122954
18 1 1 0.166666 0.154015
20 1 0.5 0.416667 0.154015
27 1 0.5 0.25 0.18511
29 1 1.40059e-16 0.5 0.18511
25 1 1 1 0.18511
22 1 1 0.666666 0.154015
24 1 0.5 0.916667 0.154015
31 1 0.5 0.75 0.18511
26 1 1 0.166666 0.216194
28 1 0.5 0.416667 0.216194
35 1 0.5 0.25 0.247282
37 1 1 0.499999 0.247282
33 1 1 0.999999 0.247282
30 1 1.5136e-16 0.666666 0.216194
32 1 0.5 0.916667 0.216194
39 1 0.5 0.75 0.247282
34 1 2.89664e-16 0.166666 0.278368
36 1 0.5 0.416667 0.278368
38 1 1 0.666666 0.278368
40 1 0.5 0.916667 0.278368
41 1 1 0.499999 0.309455
48 1 0.5 0.416667 0.340542
47 1 0.5 0.25 0.309455
46 1 1 0.166666 0.340542
42 1 1 0.666666 0.340542
43 1 0.5 0.75 0.309455
44 1 0.5 0.916667 0.340542
45 1 1.5136e-16 0.999999 0.309455
49 1 3.55317e-16 0.5 0.37163
55 1 0.5 0.25 0.37163
51 1 0.5 0.75 0.37163
53 1 1 1 0.37163
57 1 1 0.5 0.433809
56 1 0.5 0.416666 0.402714
63 1 0.5 0.25 0.433809
54 1 1 0.166666 0.402714
50 1 3.02719e-16 0.666666 0.402714
59 1 0.5 0.75 0.433809
52 1 0.5 0.916666 0.402714
61 1 1 1 0.433809
64 1 0.5 0.416667 0.46487
71 1 0.5 0.249999 0.496034
62 1 1 0.166667 0.46487
69 1 1 2.65977e-07 0.496034
65 1 1 0.5 0.496034
58 1 0 0.666667 0.46487
67 1 0.5 0.749999 0.496034
60 1 0.5 0.916667 0.46487
72 1 0.5 0.416666 0.526928
70 1 0 0.166667 0.526928
66 1 0 0.666667 0.526928
68 1 0.5 0.916666 0.526928
73 1 0 0.5 0.558756
80 1 0.5 0.416667 0.587824
79 1 0.5 0.25 0.558756
78 1 8.66974e-17 0.166667 0.587824
74 1 1.5017e-16 0.666667 0.587824
75 1 0.5 0.75 0.558756
76 1 0.5 0.916667 0.587824
77 1 0 1 0.558756
