ITEM: TIMESTEP
15
ITEM: NUMBER OF ATOMS
80
ITEM: BOX BOUNDS pp pp pp
0.0000000000000000e+00 3.5588443270000001e+00
0.0000000000000000e+00 1.2328192633160700e+01
0.0000000000000000e+00 9.8804255508626724e+01
ITEM: ATOMS id type xs ys zs
1 1 0 0 0
2 1 0 0.166667 0.0283257
3 1 0.5 0.25 0
4 1 0.5 0.416667 0.0283257
5 1 0 0.5 0
6 1 2.05329e-17 0.666667 0.0283257
7 1 0.5 0.75 0
8 1 0.5 0.916667 0.0283257
11 1 0.5 0.25 0.0571391
13 1 1 0.5 0.0571391
9 1 1 1 0.0571391
15 1 0.5 0.75 0.0571391
10 1 1 0.166667 0.0859452
19 1 0.5 0.25 0.114751
12 1 0.5 0.416667 0.0859452
14 1 3.33179e-17 0.666667 0.0859452
21 1 1 0.5 0.114751
17 1 0 1 0.114751
16 1 0.5 0.916667 0.0859452
23 1 0.5 0.75 0.114751
18 1 1 0.166666 0.143558
20 1 0.5 0.416666 0.143558
22 1 1 0.666666 0.143558
24 1 0.5 0.916666 0.143558
27 1 0.5 0.25 0.172364
29 1 1 0.5 0.172364
25 1 0 1 0.172364
31 1 0.5 0.75 0.172364
26 1 1 0.166666 0.20117
35 1 0.5 0.25 0.229977
28 1 0.5 0.416666 0.20117
30 1 1 0.666666 0.20117
37 1 1 0.5 0.229977
33 1 1 1 0.229977
32 1 0.5 0.916666 0.20117
39 1 0.5 0.75 0.229977
34 1 1 0.166666 0.258784
36 1 0.5 0.416666 0.258784
38 1 1 0.666666 0.258784
40 1 0.5 0.916666 0.258784
42 1 1 0.166666 0.316398
43 1 0.5 0.25 0.287591
44 1 0.5 0.416666 0.316398
45 1 0 0.5 0.287591
46 1 1 0.666666 0.316398
41 1 1 1 0.287591
47 1 0.5 0.75 0.287591
48 1 0.5 0.916666 0.316398
51 1 0.5 0.25 0.345205
53 1 1 0.5 0.345205
49 1 1 1 0.345205
55 1 0.5 0.75 0.345205
50 1 0 0.166666 0.374012
52 1 0.5 0.416666 0.374012
54 1 1 0.666666 0.374012
56 1 0.5 0.916666 0.374012
58 1 0 0.166666 0.431624
59 1 0.5 0.249999 0.402818
60 1 0.5 0.416666 0.431624
61 1 4.04156e-17 0.499999 0.402818
62 1 1 0.666666 0.431624
57 1 1 0.999999 0.402818
63 1 0.5 0.749999 0.402818
64 1 0.5 0.916666 0.431624
67 1 0.5 0.249999 0.46043
69 1 1 0.499999 0.46043
65 1 0 0.999999 0.46043
71 1 0.5 0.749999 0.46043
66 1 0 0.166666 0.489236
75 1 0.5 0.249999 0.51805
68 1 0.5 0.416666 0.489236
70 1 1.70968e-17 0.666666 0.489236
77 1 8.48732e-17 0.499999 0.51805
73 1 1.80855e-16 0.999999 0.51805
72 1 0.5 0.916666 0.489236
79 1 0.5 0.749999 0.51805
74 1 0 0.166667 0.546375
76 1 0.5 0.416665 0.546375
78 1 0 0.666667 0.546375
80 1 0.5 0.916665 0.546375
