ITEM: TIMESTEP
502
ITEM: NUMBER OF ATOMS
80
ITEM: BOX BOUNDS pp pp pp
0.0000000000000000e+00 2.9340000000000002e+00
0.0000000000000000e+00 1.0163669400000002e+01
0.0000000000000000e+00 7.4682691523668808e+01
ITEM: ATOMS id type xs ys zs
1 1 0 0 0
2 1 0 0.166667 0.0290672
3 1 0.5 0.25 0
4 1 0.5 0.416667 0.0290673
5 1 0 0.5 0
6 1 1 0.666667 0.0290672
7 1 0.5 0.75 0
8 1 0.5 0.916667 0.0290673
10 1 1 0.166667 0.0917897
11 1 0.5 0.25 0.0608956
12 1 0.5 0.416667 0.0917897
13 1 0 0.5 0.0608955
9 1 1 1 0.0608955
14 1 1 0.666667 0.0917897
15 1 0.5 0.75 0.0608956
16 1 0.5 0.916667 0.0917897
19 1 0.5 0.25 0.122954
21 1 1 0.5 0.122954
17 1 1 1 0.122954
23 1 0.5 0.75 0.122954
18 1 1 0.166666 0.15402
20 1 0.5 0.416667 0.154019
27 1 0.5 0.25 0.185115
29 1 1.40059e-16 0.5 0.185115
25 1 1 1 0.185115
22 1 1 0.666666 0.15402
24 1 0.5 0.916667 0.154019
31 1 0.5 0.75 0.185115
26 1 1 0.166666 0.216203
28 1 0.5 0.416667 0.216203
35 1 0.5 0.25 0.247172
37 1 1 0.499999 0.247172
33 1 1 0.999999 0.247172
30 1 1.5136e-16 0.666666 0.216203
32 1 0.5 0.916667 0.216203
39 1 0.5 0.75 0.247172
34 1 2.89664e-16 0.166666 0.27834
36 1 0.5 0.416667 0.27834
38 1 1 0.666666 0.27834
40 1 0.5 0.916667 0.27834
41 1 1 0.349999 0.310131
48 1 0.5 0.266667 0.341299
47 1 0.5 0.0999998 0.310131
46 1 1 0.0166661 0.341299
42 1 1 0.516666 0.341299
43 1 0.5 0.6 0.310131
44 1 0.5 0.766667 0.341299
45 1 1.5136e-16 0.849999 0.310131
49 1 3.55317e-16 0.35 0.372268
55 1 0.5 0.0999997 0.372268
51 1 0.5 0.6 0.372268
53 1 1 0.85 0.372268
57 1 1 0.35 0.434452
56 1 0.5 0.266666 0.403356
63 1 0.5 0.0999998 0.434452
54 1 1 0.0166664 0.403356
50 1 3.02719e-16 0.516666 0.403356
59 1 0.5 0.6 0.434452
52 1 0.5 0.766666 0.403356
61 1 1 0.85 0.434452
65 1 1 0.35 0.496681
64 1 0.5 0.266667 0.465517
71 1 0.5 0.0999995 0.496681
62 1 1 0.0166665 0.465517
58 1 0 0.516667 0.465517
67 1 0.5 0.599999 0.496681
60 1 0.5 0.766667 0.465517
69 1 1 0.85 0.496681
72 1 0.5 0.266666 0.527576
70 1 0 0.0166669 0.527576
66 1 0 0.516667 0.527576
68 1 0.5 0.766666 0.527576
73 1 0 0.35 0.559404
80 1 0.5 0.266667 0.588471
79 1 0.5 0.1 0.559404
78 1 8.66974e-17 0.0166669 0.588471
74 1 1.5017e-16 0.516667 0.588471
75 1 0.5 0.6 0.559404
76 1 0.5 0.766667 0.588471
77 1 0 0.85 0.559404
