ITEM: TIMESTEP
629
ITEM: NUMBER OF ATOMS
80
ITEM: BOX BOUNDS pp pp pp
0.0000000000000000e+00 2.9340000000000002e+00
0.0000000000000000e+00 1.0163669400000002e+01
0.0000000000000000e+00 7.4682691523668808e+01
ITEM: ATOMS id type xs ys zs
1 1 0 0 0
2 1 0 0.166667 0.0290674
3 1 0.5 0.25 0
4 1 0.5 0.416667 0.0290674
5 1 0 0.5 0
6 1 1 0.666667 0.0290674
7 1 0.5 0.75 0
8 1 0.5 0.916667 0.0290674
10 1 1 0.166667 0.0917895
11 1 0.5 0.25 0.0608958
12 1 0.5 0.416667 0.0917895
13 1 0 0.5 0.0608958
9 1 1 1 0.0608958
14 1 1 0.666667 0.0917895
15 1 0.5 0.75 0.0608958
16 1 0.5 0.916667 0.0917895
19 1 0.5 0.25 0.122954
21 1 1 0.5 0.122954
17 1 1 1 0.122954
23 1 0.5 0.75 0.122954
18 1 1 0.166666 0.154016
20 1 0.5 0.416667 0.154016
27 1 0.5 0.25 0.185113
29 1 1.40059e-16 0.5 0.185113
25 1 1 1 0.185113
22 1 1 0.666666 0.154016
24 1 0.5 0.916667 0.154016
31 1 0.5 0.75 0.185113
26 1 1 0.166666 0.216194
28 1 0.5 0.416667 0.216194
35 1 0.5 0.25 0.247247
37 1 1 0.499999 0.247247
33 1 1 0.999999 0.247247
30 1 1.5136e-16 0.666666 0.216194
32 1 0.5 0.916667 0.216194
39 1 0.5 0.75 0.247247
34 1 2.89664e-16 0.166666 0.278281
36 1 0.5 0.416667 0.278281
38 1 1 0.666666 0.278281
40 1 0.5 0.916667 0.278281
41 1 1 0.466666 0.309842
48 1 0.5 0.383333 0.340877
47 1 0.5 0.216667 0.309842
46 1 1 0.133333 0.340877
42 1 1 0.633333 0.340877
43 1 0.5 0.716667 0.309842
44 1 0.5 0.883333 0.340877
45 1 1.5136e-16 0.966666 0.309842
49 1 3.55317e-16 0.466666 0.371929
55 1 0.5 0.216666 0.371929
51 1 0.5 0.716666 0.371929
53 1 1 0.966666 0.371929
57 1 1 0.466666 0.434107
56 1 0.5 0.383333 0.40301
63 1 0.5 0.216667 0.434107
54 1 1 0.133333 0.40301
50 1 3.02719e-16 0.633333 0.40301
59 1 0.5 0.716667 0.434107
52 1 0.5 0.883333 0.40301
61 1 1 0.966666 0.434107
65 1 1 0.466667 0.496333
64 1 0.5 0.383333 0.465169
71 1 0.5 0.216666 0.496333
62 1 1 0.133333 0.465169
58 1 0 0.633333 0.465169
67 1 0.5 0.716666 0.496333
60 1 0.5 0.883333 0.465169
69 1 1 0.966667 0.496333
72 1 0.5 0.383333 0.527227
70 1 0 0.133334 0.527227
66 1 0 0.633334 0.527227
68 1 0.5 0.883333 0.527227
73 1 0 0.466667 0.559056
80 1 0.5 0.383333 0.588123
79 1 0.5 0.216667 0.559056
78 1 8.66974e-17 0.133334 0.588123
74 1 1.5017e-16 0.633334 0.588123
75 1 0.5 0.716667 0.559056
76 1 0.5 0.883333 0.588123
77 1 0 0.966667 0.559056
