ITEM: TIMESTEP
609
ITEM: NUMBER OF ATOMS
80
ITEM: BOX BOUNDS pp pp pp
0.0000000000000000e+00 2.9340000000000002e+00
0.0000000000000000e+00 1.0163669400000002e+01
0.0000000000000000e+00 7.4682691523668808e+01
ITEM: ATOMS id type xs ys zs
1 1 0 0 0
2 1 0 0.166667 0.0290673
3 1 0.5 0.25 0
4 1 0.5 0.416667 0.0290673
5 1 0 0.5 0
6 1 1 0.666667 0.0290673
7 1 0.5 0.75 0
8 1 0.5 0.916667 0.0290673
10 1 1 0.166667 0.0917895
11 1 0.5 0.25 0.0608958
12 1 0.5 0.416667 0.0917895
13 1 0 0.5 0.0608958
9 1 1 1 0.0608958
14 1 1 0.666667 0.0917895
15 1 0.5 0.75 0.0608958
16 1 0.5 0.916667 0.0917895
19 1 0.5 0.25 0.122954
21 1 1 0.5 0.122954
17 1 1 1 0.122954
23 1 0.5 0.75 0.122954
18 1 1 0.166666 0.154016
20 1 0.5 0.416667 0.154016
27 1 0.5 0.25 0.185116
29 1 1.40059e-16 0.5 0.185116
25 1 1 1 0.185116
22 1 1 0.666666 0.154016
24 1 0.5 0.916667 0.154016
31 1 0.5 0.75 0.185116
26 1 1 0.166666 0.216198
28 1 0.5 0.416667 0.216198
35 1 0.5 0.25 0.247227
37 1 1 0.499999 0.247227
33 1 1 0.999999 0.247227
30 1 1.5136e-16 0.666666 0.216198
32 1 0.5 0.916667 0.216198
39 1 0.5 0.75 0.247227
34 1 2.89664e-16 0.166666 0.278174
36 1 0.5 0.416667 0.278174
38 1 1 0.666666 0.278174
40 1 0.5 0.916667 0.278174
41 1 1 0.449999 0.309994
48 1 0.5 0.366667 0.340941
47 1 0.5 0.2 0.309994
46 1 1 0.116666 0.340941
42 1 1 0.616666 0.340941
43 1 0.5 0.7 0.309994
44 1 0.5 0.866667 0.340941
45 1 1.5136e-16 0.949999 0.309994
49 1 3.55317e-16 0.45 0.37197
55 1 0.5 0.2 0.37197
51 1 0.5 0.7 0.37197
53 1 1 0.95 0.37197
57 1 1 0.45 0.434153
56 1 0.5 0.366666 0.403052
63 1 0.5 0.2 0.434153
54 1 1 0.116666 0.403052
50 1 3.02719e-16 0.616666 0.403052
59 1 0.5 0.7 0.434153
52 1 0.5 0.866666 0.403052
61 1 1 0.95 0.434153
65 1 1 0.45 0.496379
64 1 0.5 0.366667 0.465215
71 1 0.5 0.199999 0.496379
62 1 1 0.116667 0.465215
58 1 0 0.616667 0.465215
67 1 0.5 0.699999 0.496379
60 1 0.5 0.866667 0.465215
69 1 1 0.95 0.496379
72 1 0.5 0.366666 0.527273
70 1 0 0.116667 0.527273
66 1 0 0.616667 0.527273
68 1 0.5 0.866666 0.527273
73 1 0 0.45 0.559101
80 1 0.5 0.366667 0.588169
79 1 0.5 0.2 0.559101
78 1 8.66974e-17 0.116667 0.588169
74 1 1.5017e-16 0.616667 0.588169
75 1 0.5 0.7 0.559101
76 1 0.5 0.866667 0.588169
77 1 0 0.95 0.559101
