<?xml version="1.0" encoding="ISO-8859-1"?>
<modeling>
 <generator>
  <i name="program" type="string">vasp </i>
  <i name="version" type="string">5.4.4.18Apr17-6-g9f103f2a35  </i>
  <i name="subversion" type="string">(build Nov 05 2021 16:50:21) complex            parallel </i>
  <i name="platform" type="string">LinuxIFC </i>
  <i name="date" type="string">2021 11 21 </i>
  <i name="time" type="string">11:08:16 </i>
 </generator>
 <incar>
  <i type="int" name="ISTART">     1</i>
  <i type="string" name="PREC">normal</i>
  <i type="string" name="ALGO"> Accurate</i>
  <i type="int" name="NSIM">     2</i>
  <i type="logical" name="ADDGRID"> T  </i>
  <i type="int" name="ICHARG">    11</i>
  <i type="int" name="IBRION">    -1</i>
  <i name="EDIFF">      0.00000100</i>
  <i name="EDIFFG">     -0.03000000</i>
  <i type="int" name="NSW">     0</i>
  <i type="int" name="ISIF">     2</i>
  <i name="ENCUT">    520.00000000</i>
  <i type="int" name="NEDOS">  2000</i>
  <i type="int" name="ISMEAR">     1</i>
  <i name="SIGMA">      0.20000000</i>
  <i type="logical" name="LWAVE"> F  </i>
  <i type="logical" name="LCHARG"> T  </i>
  <i type="int" name="LORBIT">    11</i>
  <v type="int" name="KPOINT_BSE">    -1     0     0     0</v>
  <i type="string" name="METAGGA"> SCAN</i>
 </incar>
 <structure name="primitive_cell" >
  <crystal>
   <varray name="basis" >
    <v>       0.00000000       2.40378399       2.40378399 </v>
    <v>       2.40378399       0.00000000       2.40378399 </v>
    <v>       2.40378399       2.40378399       0.00000000 </v>
   </varray>
   <i name="volume">     27.77898087 </i>
   <varray name="rec_basis" >
    <v>      -0.20800538       0.20800538       0.20800538 </v>
    <v>       0.20800538      -0.20800538       0.20800538 </v>
    <v>       0.20800538       0.20800538      -0.20800538 </v>
   </varray>
  </crystal>
  <varray name="positions" >
   <v>       0.00000000       0.00000000       0.00000000 </v>
   <v>      -0.25000000      -0.25000000      -0.25000000 </v>
   <v>       0.25000000       0.25000000       0.25000000 </v>
  </varray>
 </structure>
 <varray name="primitive_index" >
  <v type="int" >        1 </v>
  <v type="int" >        2 </v>
  <v type="int" >        3 </v>
 </varray>
 <kpoints>
  <generation param="listgenerated">
   <i name="divisions" type="int">      20 </i>
   <v>       0.00000000       0.00000000       0.00000000 </v>
   <v>       0.50000000       0.50000000       0.00000000 </v>
   <v>       0.33333333       0.66666667       0.00000000 </v>
   <v>       0.00000000       0.00000000       0.00000000 </v>
  </generation>
  <varray name="kpointlist" >
   <v>       0.00000000       0.00000000       0.00000000 </v>
   <v>       0.02631579       0.02631579       0.00000000 </v>
   <v>       0.05263158       0.05263158       0.00000000 </v>
   <v>       0.07894737       0.07894737       0.00000000 </v>
   <v>       0.10526316       0.10526316       0.00000000 </v>
   <v>       0.13157895       0.13157895       0.00000000 </v>
   <v>       0.15789474       0.15789474       0.00000000 </v>
   <v>       0.18421053       0.18421053       0.00000000 </v>
   <v>       0.21052632       0.21052632       0.00000000 </v>
   <v>       0.23684211       0.23684211       0.00000000 </v>
   <v>       0.26315789       0.26315789       0.00000000 </v>
   <v>       0.28947368       0.28947368       0.00000000 </v>
   <v>       0.31578947       0.31578947       0.00000000 </v>
   <v>       0.34210526       0.34210526       0.00000000 </v>
   <v>       0.36842105       0.36842105       0.00000000 </v>
   <v>       0.39473684       0.39473684       0.00000000 </v>
   <v>       0.42105263       0.42105263       0.00000000 </v>
   <v>       0.44736842       0.44736842       0.00000000 </v>
   <v>       0.47368421       0.47368421       0.00000000 </v>
   <v>       0.50000000       0.50000000       0.00000000 </v>
   <v>       0.50000000       0.50000000       0.00000000 </v>
   <v>       0.49122807       0.50877193       0.00000000 </v>
   <v>       0.48245614       0.51754386       0.00000000 </v>
   <v>       0.47368421       0.52631579       0.00000000 </v>
   <v>       0.46491228       0.53508772       0.00000000 </v>
   <v>       0.45614035       0.54385965       0.00000000 </v>
   <v>       0.44736842       0.55263158       0.00000000 </v>
   <v>       0.43859649       0.56140351       0.00000000 </v>
   <v>       0.42982456       0.57017544       0.00000000 </v>
   <v>       0.42105263       0.57894737       0.00000000 </v>
   <v>       0.41228070       0.58771930       0.00000000 </v>
   <v>       0.40350877       0.59649123       0.00000000 </v>
   <v>       0.39473684       0.60526316       0.00000000 </v>
   <v>       0.38596491       0.61403509       0.00000000 </v>
   <v>       0.37719298       0.62280702       0.00000000 </v>
   <v>       0.36842105       0.63157895       0.00000000 </v>
   <v>       0.35964912       0.64035088       0.00000000 </v>
   <v>       0.35087719       0.64912281       0.00000000 </v>
   <v>       0.34210526       0.65789474       0.00000000 </v>
   <v>       0.33333333       0.66666667       0.00000000 </v>
   <v>       0.33333333       0.66666667       0.00000000 </v>
   <v>       0.31578947       0.63157895       0.00000000 </v>
   <v>       0.29824561       0.59649123       0.00000000 </v>
   <v>       0.28070175       0.56140351       0.00000000 </v>
   <v>       0.26315789       0.52631579       0.00000000 </v>
   <v>       0.24561404       0.49122807       0.00000000 </v>
   <v>       0.22807018       0.45614035       0.00000000 </v>
   <v>       0.21052632       0.42105263       0.00000000 </v>
   <v>       0.19298246       0.38596491       0.00000000 </v>
   <v>       0.17543860       0.35087719       0.00000000 </v>
   <v>       0.15789474       0.31578947       0.00000000 </v>
   <v>       0.14035088       0.28070175       0.00000000 </v>
   <v>       0.12280702       0.24561404       0.00000000 </v>
   <v>       0.10526316       0.21052632       0.00000000 </v>
   <v>       0.08771930       0.17543860       0.00000000 </v>
   <v>       0.07017544       0.14035088       0.00000000 </v>
   <v>       0.05263158       0.10526316       0.00000000 </v>
   <v>       0.03508772       0.07017544       0.00000000 </v>
   <v>       0.01754386       0.03508772       0.00000000 </v>
   <v>       0.00000000       0.00000000       0.00000000 </v>
  </varray>
  <varray name="weights" >
   <v>       0.01666667 </v>
   <v>       0.01666667 </v>
   <v>       0.01666667 </v>
   <v>       0.01666667 </v>
   <v>       0.01666667 </v>
   <v>       0.01666667 </v>
   <v>       0.01666667 </v>
   <v>       0.01666667 </v>
   <v>       0.01666667 </v>
   <v>       0.01666667 </v>
   <v>       0.01666667 </v>
   <v>       0.01666667 </v>
   <v>       0.01666667 </v>
   <v>       0.01666667 </v>
   <v>       0.01666667 </v>
   <v>       0.01666667 </v>
   <v>       0.01666667 </v>
   <v>       0.01666667 </v>
   <v>       0.01666667 </v>
   <v>       0.01666667 </v>
   <v>       0.01666667 </v>
   <v>       0.01666667 </v>
   <v>       0.01666667 </v>
   <v>       0.01666667 </v>
   <v>       0.01666667 </v>
   <v>       0.01666667 </v>
   <v>       0.01666667 </v>
   <v>       0.01666667 </v>
   <v>       0.01666667 </v>
   <v>       0.01666667 </v>
   <v>       0.01666667 </v>
   <v>       0.01666667 </v>
   <v>       0.01666667 </v>
   <v>       0.01666667 </v>
   <v>       0.01666667 </v>
   <v>       0.01666667 </v>
   <v>       0.01666667 </v>
   <v>       0.01666667 </v>
   <v>       0.01666667 </v>
   <v>       0.01666667 </v>
   <v>       0.01666667 </v>
   <v>       0.01666667 </v>
   <v>       0.01666667 </v>
   <v>       0.01666667 </v>
   <v>       0.01666667 </v>
   <v>       0.01666667 </v>
   <v>       0.01666667 </v>
   <v>       0.01666667 </v>
   <v>       0.01666667 </v>
   <v>       0.01666667 </v>
   <v>       0.01666667 </v>
   <v>       0.01666667 </v>
   <v>       0.01666667 </v>
   <v>       0.01666667 </v>
   <v>       0.01666667 </v>
   <v>       0.01666667 </v>
   <v>       0.01666667 </v>
   <v>       0.01666667 </v>
   <v>       0.01666667 </v>
   <v>       0.01666667 </v>
  </varray>
 </kpoints>
 <parameters>
  <separator name="general" >
   <i type="string" name="SYSTEM">unknown system</i>
   <i type="logical" name="LCOMPAT"> F  </i>
  </separator>
  <separator name="electronic" >
   <i type="string" name="PREC">normal</i>
   <i name="ENMAX">    520.00000000</i>
   <i name="ENAUG">    461.25700000</i>
   <i name="EDIFF">      0.00000100</i>
   <i type="int" name="IALGO">    38</i>
   <i type="int" name="IWAVPR">    10</i>
   <i type="int" name="NBANDS">    12</i>
   <i name="NELECT">     14.00000000</i>
   <i type="int" name="TURBO">     0</i>
   <i type="int" name="IRESTART">     0</i>
   <i type="int" name="NREBOOT">     0</i>
   <i type="int" name="NMIN">     0</i>
   <i name="EREF">      0.00000000</i>
   <separator name="electronic smearing" >
    <i type="int" name="ISMEAR">     1</i>
    <i name="SIGMA">      0.20000000</i>
    <i name="KSPACING">      0.50000000</i>
    <i type="logical" name="KGAMMA"> T  </i>
   </separator>
   <separator name="electronic projectors" >
    <i type="logical" name="LREAL"> F  </i>
    <v name="ROPT">      0.00000000      0.00000000</v>
    <i type="int" name="LMAXPAW">  -100</i>
    <i type="int" name="LMAXMIX">     2</i>
    <i type="logical" name="NLSPLINE"> F  </i>
   </separator>
   <separator name="electronic startup" >
    <i type="int" name="ISTART">     0</i>
    <i type="int" name="ICHARG">    11</i>
    <i type="int" name="INIWAV">     1</i>
   </separator>
   <separator name="electronic spin" >
    <i type="int" name="ISPIN">     1</i>
    <i type="logical" name="LNONCOLLINEAR"> F  </i>
    <v name="MAGMOM">      1.00000000      1.00000000      1.00000000</v>
    <i name="NUPDOWN">     -1.00000000</i>
    <i type="logical" name="LSORBIT"> F  </i>
    <v name="SAXIS">      0.00000000      0.00000000      1.00000000</v>
    <i type="logical" name="LSPIRAL"> F  </i>
    <v name="QSPIRAL">      0.00000000      0.00000000      0.00000000</v>
    <i type="logical" name="LZEROZ"> F  </i>
   </separator>
   <separator name="electronic exchange-correlation" >
    <i type="logical" name="LASPH"> F  </i>
    <i type="logical" name="LMETAGGA"> F  </i>
   </separator>
   <separator name="electronic convergence" >
    <i type="int" name="NELM">    60</i>
    <i type="int" name="NELMDL">     0</i>
    <i type="int" name="NELMIN">     2</i>
    <i name="ENINI">    520.00000000</i>
    <separator name="electronic convergence detail" >
     <i type="logical" name="LDIAG"> T  </i>
     <i type="logical" name="LSUBROT"> F  </i>
     <i name="WEIMIN">      0.00000000</i>
     <i name="EBREAK">      0.00000002</i>
     <i name="DEPER">      0.30000000</i>
     <i type="int" name="NRMM">     4</i>
     <i name="TIME">      0.40000000</i>
    </separator>
   </separator>
   <separator name="electronic mixer" >
    <i name="AMIX">      0.40000000</i>
    <i name="BMIX">      1.00000000</i>
    <i name="AMIN">      0.10000000</i>
    <i name="AMIX_MAG">      1.60000000</i>
    <i name="BMIX_MAG">      1.00000000</i>
    <separator name="electronic mixer details" >
     <i type="int" name="IMIX">     4</i>
     <i type="logical" name="MIXFIRST"> F  </i>
     <i type="int" name="MAXMIX">   -45</i>
     <i name="WC">    100.00000000</i>
     <i type="int" name="INIMIX">     1</i>
     <i type="int" name="MIXPRE">     1</i>
     <i type="int" name="MREMOVE">     5</i>
    </separator>
   </separator>
   <separator name="electronic dipolcorrection" >
    <i type="logical" name="LDIPOL"> F  </i>
    <i type="logical" name="LMONO"> F  </i>
    <i type="int" name="IDIPOL">     0</i>
    <i name="EPSILON">      1.00000000</i>
    <v name="DIPOL">   -100.00000000   -100.00000000   -100.00000000</v>
    <i name="EFIELD">      0.00000000</i>
   </separator>
  </separator>
  <separator name="grids" >
   <i type="int" name="NGX">    20</i>
   <i type="int" name="NGY">    20</i>
   <i type="int" name="NGZ">    20</i>
   <i type="int" name="NGXF">    40</i>
   <i type="int" name="NGYF">    40</i>
   <i type="int" name="NGZF">    40</i>
   <i type="logical" name="ADDGRID"> T  </i>
  </separator>
  <separator name="ionic" >
   <i type="int" name="NSW">     0</i>
   <i type="int" name="IBRION">    -1</i>
   <i type="int" name="MDALGO">     0</i>
   <i type="int" name="ISIF">     2</i>
   <i name="PSTRESS">      0.00000000</i>
   <i name="EDIFFG">     -0.03000000</i>
   <i type="int" name="NFREE">     0</i>
   <i name="POTIM">      0.50000000</i>
   <i name="SMASS">     -3.00000000</i>
   <i name="SCALEE">      1.00000000</i>
  </separator>
  <separator name="ionic md" >
   <i name="TEBEG">      0.00010000</i>
   <i name="TEEND">      0.00010000</i>
   <i type="int" name="NBLOCK">     1</i>
   <i type="int" name="KBLOCK">     1</i>
   <i type="int" name="NPACO">   256</i>
   <i name="APACO">     16.00000000</i>
  </separator>
  <separator name="symmetry" >
   <i type="int" name="ISYM">     2</i>
   <i name="SYMPREC">      0.00001000</i>
  </separator>
  <separator name="dos" >
   <i type="int" name="LORBIT">    11</i>
   <v name="RWIGS">     -1.00000000     -1.00000000</v>
   <i type="int" name="NEDOS">  2000</i>
   <i name="EMIN">     10.00000000</i>
   <i name="EMAX">    -10.00000000</i>
   <i name="EFERMI">      0.00000000</i>
  </separator>
  <separator name="writing" >
   <i type="int" name="NWRITE">     2</i>
   <i type="logical" name="LWAVE"> F  </i>
   <i type="logical" name="LDOWNSAMPLE"> F  </i>
   <i type="logical" name="LCHARG"> T  </i>
   <i type="logical" name="LPARD"> F  </i>
   <i type="logical" name="LVTOT"> F  </i>
   <i type="logical" name="LVHAR"> F  </i>
   <i type="logical" name="LELF"> F  </i>
   <i type="logical" name="LOPTICS"> F  </i>
   <v name="STM">      0.00000000      0.00000000      0.00000000      0.00000000      0.00000000      0.00000000      0.00000000</v>
  </separator>
  <separator name="performance" >
   <i type="int" name="NPAR">     3</i>
   <i type="int" name="NSIM">     2</i>
   <i type="int" name="NBLK">    -1</i>
   <i type="logical" name="LPLANE"> T  </i>
   <i type="logical" name="LSCALAPACK"> T  </i>
   <i type="logical" name="LSCAAWARE"> F  </i>
   <i type="logical" name="LSCALU"> F  </i>
   <i type="logical" name="LASYNC"> F  </i>
   <i type="logical" name="LORBITALREAL"> F  </i>
  </separator>
  <separator name="miscellaneous" >
   <i type="int" name="IDIOT">     3</i>
   <i type="int" name="ISPECIAL">     0</i>
   <i type="logical" name="LMUSIC"> F  </i>
   <v name="POMASS">     91.22400000      1.00000000</v>
   <v name="DARWINR">      0.00000000      0.00000000</v>
   <v name="DARWINV">      1.00000000      1.00000000</v>
   <i type="logical" name="LCORR"> T  </i>
  </separator>
  <i type="logical" name="GGA_COMPAT"> T  </i>
  <i type="logical" name="LBERRY"> F  </i>
  <i type="int" name="ICORELEVEL">     0</i>
  <i type="logical" name="LDAU"> F  </i>
  <i type="int" name="I_CONSTRAINED_M">     0</i>
  <separator name="electronic exchange-correlation" >
   <i type="string" name="GGA">--</i>
   <i type="int" name="VOSKOWN">     0</i>
   <i type="logical" name="LHFCALC"> F  </i>
   <i type="string" name="PRECFOCK"></i>
   <i type="logical" name="LSYMGRAD"> F  </i>
   <i type="logical" name="LHFONE"> F  </i>
   <i type="logical" name="LRHFCALC"> F  </i>
   <i type="logical" name="LTHOMAS"> F  </i>
   <i type="logical" name="LMODELHF"> F  </i>
   <i name="ENCUT4O">     -1.00000000</i>
   <i type="int" name="EXXOEP">     0</i>
   <i type="int" name="FOURORBIT">     0</i>
   <i name="AEXX">      0.00000000</i>
   <i name="HFALPHA">      0.00000000</i>
   <i name="MCALPHA">      0.00000000</i>
   <i name="ALDAX">      1.00000000</i>
   <i name="AGGAX">      1.00000000</i>
   <i name="ALDAC">      1.00000000</i>
   <i name="AGGAC">      1.00000000</i>
   <i type="int" name="NKREDX">     1</i>
   <i type="int" name="NKREDY">     1</i>
   <i type="int" name="NKREDZ">     1</i>
   <i type="logical" name="SHIFTRED"> F  </i>
   <i type="logical" name="ODDONLY"> F  </i>
   <i type="logical" name="EVENONLY"> F  </i>
   <i type="int" name="LMAXFOCK">     0</i>
   <i type="int" name="NMAXFOCKAE">     0</i>
   <i type="logical" name="LFOCKAEDFT"> F  </i>
   <i name="HFSCREEN">      0.00000000</i>
   <i name="HFSCREENC">      0.00000000</i>
   <i type="int" name="NBANDSGWLOW">     0</i>
  </separator>
  <separator name="vdW DFT" >
   <i type="logical" name="LUSE_VDW"> F  </i>
   <i name="Zab_VDW">     -0.84910000</i>
   <i name="PARAM1">      0.12340000</i>
   <i name="PARAM2">      1.00000000</i>
   <i name="PARAM3">      0.00000000</i>
  </separator>
  <separator name="model GW" >
   <i type="int" name="MODEL_GW">     0</i>
   <i name="MODEL_EPS0">      5.55579617</i>
   <i name="MODEL_ALPHA">      1.00000000</i>
  </separator>
  <separator name="linear response parameters" >
   <i type="logical" name="LEPSILON"> F  </i>
   <i type="logical" name="LRPA"> F  </i>
   <i type="logical" name="LNABLA"> F  </i>
   <i type="logical" name="LVEL"> F  </i>
   <i type="int" name="KINTER">     0</i>
   <i name="CSHIFT">      0.10000000</i>
   <i name="OMEGAMAX">     -1.00000000</i>
   <i name="DEG_THRESHOLD">      0.00200000</i>
   <i name="RTIME">     -0.10000000</i>
   <i name="WPLASMAI">      0.00000000</i>
   <v name="DFIELD">      0.00000000      0.00000000      0.00000000</v>
   <v name="WPLASMA">      0.00000000      0.00000000      0.00000000      0.00000000      0.00000000      0.00000000      0.00000000      0.00000000      0.00000000</v>
  </separator>
  <separator name="orbital magnetization" >
   <i type="logical" name="NUCIND"> F  </i>
   <v name="MAGPOS">      0.00000000      0.00000000      0.00000000</v>
   <i type="logical" name="LNICSALL"> T  </i>
   <i type="logical" name="ORBITALMAG"> F  </i>
   <i type="logical" name="LMAGBLOCH"> F  </i>
   <i type="logical" name="LCHIMAG"> F  </i>
   <i type="logical" name="LGAUGE"> T  </i>
   <i type="int" name="MAGATOM">     0</i>
   <v name="MAGDIPOL">      0.00000000      0.00000000      0.00000000</v>
   <v name="AVECCONST">      0.00000000      0.00000000      0.00000000</v>
  </separator>
  <separator name="response functions" >
   <i type="logical" name="LADDER"> F  </i>
   <i type="logical" name="LRPAFORCE"> F  </i>
   <i type="logical" name="LFXC"> F  </i>
   <i type="logical" name="LHARTREE"> T  </i>
   <i type="int" name="IBSE">     0</i>
   <v type="int" name="KPOINT">    -1     0     0     0</v>
   <i type="logical" name="LTCTE"> F  </i>
   <i type="logical" name="LTETE"> F  </i>
   <i type="logical" name="LTRIPLET"> F  </i>
   <i type="logical" name="LFXCEPS"> F  </i>
   <i type="logical" name="LFXHEG"> F  </i>
   <i type="int" name="NATURALO">     2</i>
   <i type="logical" name="L2ORDER"> F  </i>
   <i type="logical" name="LMP2LT"> F  </i>
   <i type="logical" name="LUSEW"> F  </i>
   <i name="ENCUTGW">     -2.00000000</i>
   <i name="ENCUTGWSOFT">     -2.00000000</i>
   <i name="ENCUTLF">     -1.00000000</i>
   <i type="int" name="LMAXMP2">    -1</i>
   <i name="SCISSOR">      0.00000000</i>
   <i type="int" name="NOMEGA">     0</i>
   <i type="int" name="NOMEGAR">     0</i>
   <i type="int" name="NBANDSGW">    -1</i>
   <i type="int" name="NBANDSO">    -1</i>
   <i type="int" name="NBANDSV">    -1</i>
   <i type="int" name="NELM">     1</i>
   <i type="int" name="NELMHF">     1</i>
   <i type="int" name="DIM">     3</i>
   <i type="int" name="ANTIRES">     0</i>
   <i name="OMEGAMAX">    -30.00000000</i>
   <i name="OMEGAMIN">    -30.00000000</i>
   <i name="OMEGATL">   -200.00000000</i>
   <i type="int" name="OMEGAGRID">   140</i>
   <i name="CSHIFT">     -0.10000000</i>
   <i type="logical" name="SELFENERGY"> F  </i>
   <i type="logical" name="LSPECTRAL"> F  </i>
   <i type="logical" name="LSPECTRALGW"> F  </i>
   <i type="logical" name="LSINGLES"> F  </i>
   <i type="logical" name="LFERMIGW"> F  </i>
   <i type="logical" name="ODDONLYGW"> F  </i>
   <i type="logical" name="EVENONLYGW"> F  </i>
   <i type="int" name="NKREDLFX">     1</i>
   <i type="int" name="NKREDLFY">     1</i>
   <i type="int" name="NKREDLFZ">     1</i>
   <i type="int" name="MAXMEM">  2800</i>
   <i type="int" name="TELESCOPE">     0</i>
   <i type="int" name="TAUPAR">     1</i>
   <i type="int" name="OMEGAPAR">    -1</i>
   <i name="LAMBDA">      1.00000000</i>
  </separator>
  <separator name="External order field" >
   <i name="OFIELD_KAPPA">      0.00000000</i>
   <v name="OFIELD_K">      0.00000000      0.00000000      0.00000000</v>
   <i name="OFIELD_Q6_NEAR">      0.00000000</i>
   <i name="OFIELD_Q6_FAR">      0.00000000</i>
   <i name="OFIELD_A">      0.00000000</i>
  </separator>
 </parameters>
 <atominfo>
  <atoms>       3 </atoms>
  <types>       2 </types>
  <array name="atoms" >
   <dimension dim="1">ion</dimension>
   <field type="string">element</field>
   <field type="int">atomtype</field>
   <set>
    <rc><c>Zr</c><c>   1</c></rc>
    <rc><c>H </c><c>   2</c></rc>
    <rc><c>H </c><c>   2</c></rc>
   </set>
  </array>
  <array name="atomtypes" >
   <dimension dim="1">type</dimension>
   <field type="int">atomspertype</field>
   <field type="string">element</field>
   <field>mass</field>
   <field>valence</field>
   <field type="string">pseudopotential</field>
   <set>
    <rc><c>   1</c><c>Zr</c><c>     91.22400000</c><c>     12.00000000</c><c>  PAW_PBE Zr_sv 04Jan2005               </c></rc>
    <rc><c>   2</c><c>H </c><c>      1.00000000</c><c>      1.00000000</c><c>  PAW_PBE H 15Jun2001                   </c></rc>
   </set>
  </array>
 </atominfo>
 <structure name="initialpos" >
  <crystal>
   <varray name="basis" >
    <v>       0.00000000       2.40378399       2.40378399 </v>
    <v>       2.40378399       0.00000000       2.40378399 </v>
    <v>       2.40378399       2.40378399       0.00000000 </v>
   </varray>
   <i name="volume">     27.77898087 </i>
   <varray name="rec_basis" >
    <v>      -0.20800538       0.20800538       0.20800538 </v>
    <v>       0.20800538      -0.20800538       0.20800538 </v>
    <v>       0.20800538       0.20800538      -0.20800538 </v>
   </varray>
  </crystal>
  <varray name="positions" >
   <v>       0.00000000       0.00000000       0.00000000 </v>
   <v>       0.75000000       0.75000000       0.75000000 </v>
   <v>       0.25000000       0.25000000       0.25000000 </v>
  </varray>
 </structure>
 <calculation>
  <scstep>
   <time name="dav">    0.57    0.57</time>
   <time name="total">    0.63    0.63</time>
   <energy>
    <i name="alphaZ">     58.25704684 </i>
    <i name="ewald">  -1063.40102220 </i>
    <i name="hartreedc">   -221.63776785 </i>
    <i name="XCdc">     62.98151459 </i>
    <i name="pawpsdc">   1599.26171380 </i>
    <i name="pawaedc">  -1604.85348247 </i>
    <i name="eentropy">      0.00259670 </i>
    <i name="bandstr">    -63.95208911 </i>
    <i name="atom">   1309.19157560 </i>
    <i name="e_fr_energy">     75.85008590 </i>
    <i name="e_wo_entrp">     75.84748920 </i>
    <i name="e_0_energy">     75.84922033 </i>
   </energy>
  </scstep>
  <scstep>
   <time name="dav">    0.65    0.65</time>
   <time name="total">    0.65    0.65</time>
   <energy>
    <i name="e_fr_energy">    -41.07671367 </i>
    <i name="e_wo_entrp">    -41.07246120 </i>
    <i name="e_0_energy">    -41.07529618 </i>
   </energy>
  </scstep>
  <scstep>
   <time name="dav">    0.73    0.73</time>
   <time name="total">    0.74    0.74</time>
   <energy>
    <i name="e_fr_energy">    -46.36612479 </i>
    <i name="e_wo_entrp">    -46.36511508 </i>
    <i name="e_0_energy">    -46.36578822 </i>
   </energy>
  </scstep>
  <scstep>
   <time name="dav">    0.58    0.58</time>
   <time name="total">    0.58    0.58</time>
   <energy>
    <i name="e_fr_energy">    -46.47110186 </i>
    <i name="e_wo_entrp">    -46.46996023 </i>
    <i name="e_0_energy">    -46.47072132 </i>
   </energy>
  </scstep>
  <scstep>
   <time name="dav">    0.65    0.65</time>
   <time name="total">    0.65    0.65</time>
   <energy>
    <i name="e_fr_energy">    -46.47264609 </i>
    <i name="e_wo_entrp">    -46.47150467 </i>
    <i name="e_0_energy">    -46.47226561 </i>
   </energy>
  </scstep>
  <scstep>
   <time name="dav">    0.59    0.59</time>
   <time name="total">    0.59    0.59</time>
   <energy>
    <i name="e_fr_energy">    -46.47267082 </i>
    <i name="e_wo_entrp">    -46.47152940 </i>
    <i name="e_0_energy">    -46.47229035 </i>
   </energy>
  </scstep>
  <scstep>
   <time name="dav">    0.57    0.57</time>
   <time name="total">    0.57    0.57</time>
   <energy>
    <i name="alphaZ">     58.25704684 </i>
    <i name="ewald">  -1063.40102220 </i>
    <i name="hartreedc">   -221.63776785 </i>
    <i name="XCdc">     62.98151459 </i>
    <i name="pawpsdc">   1599.26171380 </i>
    <i name="pawaedc">  -1604.85348247 </i>
    <i name="eentropy">     -0.00114143 </i>
    <i name="bandstr">   -186.27110800 </i>
    <i name="atom">   1309.19157560 </i>
    <i name="e_fr_energy">    -46.47267112 </i>
    <i name="e_wo_entrp">    -46.47152969 </i>
    <i name="e_0_energy">    -46.47229064 </i>
   </energy>
  </scstep>
  <structure>
   <crystal>
    <varray name="basis" >
     <v>       0.00000000       2.40378399       2.40378399 </v>
     <v>       2.40378399       0.00000000       2.40378399 </v>
     <v>       2.40378399       2.40378399       0.00000000 </v>
    </varray>
    <i name="volume">     27.77898087 </i>
    <varray name="rec_basis" >
     <v>      -0.20800538       0.20800538       0.20800538 </v>
     <v>       0.20800538      -0.20800538       0.20800538 </v>
     <v>       0.20800538       0.20800538      -0.20800538 </v>
    </varray>
   </crystal>
   <varray name="positions" >
    <v>       0.00000000       0.00000000       0.00000000 </v>
    <v>       0.75000000       0.75000000       0.75000000 </v>
    <v>       0.25000000       0.25000000       0.25000000 </v>
   </varray>
  </structure>
  <varray name="forces" >
   <v>       0.00000000      -0.00000000       0.00000000 </v>
   <v>      -0.00000000      -0.00000000      -0.00000000 </v>
   <v>       0.00000000       0.00000000       0.00000000 </v>
  </varray>
  <varray name="stress" >
   <v>     298.46715525       0.00000000       0.00000000 </v>
   <v>      -0.00000000     298.46715525       0.00000000 </v>
   <v>      -0.00000000      -0.00000000     298.46715525 </v>
  </varray>
  <energy>
   <i name="e_fr_energy">    -46.47267112 </i>
   <i name="e_wo_entrp">    -46.47229064 </i>
   <i name="e_0_energy">     -0.00114143 </i>
  </energy>
  <time name="totalsc">    6.42    6.42</time>
  <eigenvalues>
   <array>
    <dimension dim="1">band</dimension>
    <dimension dim="2">kpoint</dimension>
    <dimension dim="3">spin</dimension>
    <field>eigene</field>
    <field>occ</field>
    <set>
     <set comment="spin 1">
      <set comment="kpoint 1">
       <r>  -42.4821    1.0000 </r>
       <r>  -19.7621    1.0000 </r>
       <r>  -19.7621    1.0000 </r>
       <r>  -19.7621    1.0000 </r>
       <r>   -3.0044    1.0000 </r>
       <r>    6.5219    1.0000 </r>
       <r>    7.5117    1.0287 </r>
       <r>    7.5117    1.0287 </r>
       <r>    7.5117    1.0287 </r>
       <r>   10.1904   -0.0000 </r>
       <r>   10.1904   -0.0000 </r>
       <r>   19.0902    0.0000 </r>
      </set>
      <set comment="kpoint 2">
       <r>  -42.4815    1.0000 </r>
       <r>  -19.7673    1.0000 </r>
       <r>  -19.7637    1.0000 </r>
       <r>  -19.7637    1.0000 </r>
       <r>   -2.9776    1.0000 </r>
       <r>    6.2547    1.0000 </r>
       <r>    7.5269    1.0208 </r>
       <r>    7.5269    1.0208 </r>
       <r>    7.8047    0.1730 </r>
       <r>   10.1548   -0.0000 </r>
       <r>   10.1994   -0.0000 </r>
       <r>   18.8464    0.0000 </r>
      </set>
      <set comment="kpoint 3">
       <r>  -42.4796    1.0000 </r>
       <r>  -19.7829    1.0000 </r>
       <r>  -19.7684    1.0000 </r>
       <r>  -19.7684    1.0000 </r>
       <r>   -2.8974    1.0000 </r>
       <r>    5.7781    1.0000 </r>
       <r>    7.5727    0.9712 </r>
       <r>    7.5727    0.9712 </r>
       <r>    8.3586   -0.0000 </r>
       <r>   10.0483   -0.0000 </r>
       <r>   10.2263   -0.0000 </r>
       <r>   18.4045    0.0000 </r>
      </set>
      <set comment="kpoint 4">
       <r>  -42.4764    1.0000 </r>
       <r>  -19.8081    1.0000 </r>
       <r>  -19.7761    1.0000 </r>
       <r>  -19.7761    1.0000 </r>
       <r>   -2.7649    1.0000 </r>
       <r>    5.2810    1.0000 </r>
       <r>    7.6489    0.7790 </r>
       <r>    7.6489    0.7790 </r>
       <r>    8.9837   -0.0000 </r>
       <r>    9.8720   -0.0000 </r>
       <r>   10.2706   -0.0000 </r>
       <r>   17.9865    0.0000 </r>
      </set>
      <set comment="kpoint 5">
       <r>  -42.4722    1.0000 </r>
       <r>  -19.8422    1.0000 </r>
       <r>  -19.7867    1.0000 </r>
       <r>  -19.7867    1.0000 </r>
       <r>   -2.5818    1.0000 </r>
       <r>    4.7977    1.0000 </r>
       <r>    7.7555    0.3503 </r>
       <r>    7.7555    0.3503 </r>
       <r>    9.6295   -0.0000 </r>
       <r>    9.6444   -0.0000 </r>
       <r>   10.3318   -0.0000 </r>
       <r>   17.6487    0.0000 </r>
      </set>
      <set comment="kpoint 6">
       <r>  -42.4669    1.0000 </r>
       <r>  -19.8838    1.0000 </r>
       <r>  -19.7997    1.0000 </r>
       <r>  -19.7997    1.0000 </r>
       <r>   -2.3500    1.0000 </r>
       <r>    4.3375    1.0000 </r>
       <r>    7.8923   -0.0047 </r>
       <r>    7.8923   -0.0047 </r>
       <r>    9.3276   -0.0000 </r>
       <r>   10.3297   -0.0000 </r>
       <r>   10.4088   -0.0000 </r>
       <r>   17.4030    0.0000 </r>
      </set>
      <set comment="kpoint 7">
       <r>  -42.4608    1.0000 </r>
       <r>  -19.9315    1.0000 </r>
       <r>  -19.8148    1.0000 </r>
       <r>  -19.8148    1.0000 </r>
       <r>   -2.0724    1.0000 </r>
       <r>    3.9046    1.0000 </r>
       <r>    8.0594   -0.0186 </r>
       <r>    8.0594   -0.0186 </r>
       <r>    8.9768   -0.0000 </r>
       <r>   10.5004   -0.0000 </r>
       <r>   11.0334   -0.0000 </r>
       <r>   17.2441    0.0000 </r>
      </set>
      <set comment="kpoint 8">
       <r>  -42.4540    1.0000 </r>
       <r>  -19.9838    1.0000 </r>
       <r>  -19.8316    1.0000 </r>
       <r>  -19.8316    1.0000 </r>
       <r>   -1.7520    1.0000 </r>
       <r>    3.5005    1.0000 </r>
       <r>    8.2563   -0.0005 </r>
       <r>    8.2563   -0.0005 </r>
       <r>    8.5897   -0.0000 </r>
       <r>   10.6048   -0.0000 </r>
       <r>   11.7507   -0.0000 </r>
       <r>   17.1545    0.0000 </r>
      </set>
      <set comment="kpoint 9">
       <r>  -42.4466    1.0000 </r>
       <r>  -20.0389    1.0000 </r>
       <r>  -19.8497    1.0000 </r>
       <r>  -19.8497    1.0000 </r>
       <r>   -1.3927    1.0000 </r>
       <r>    3.1265    1.0000 </r>
       <r>    8.1793   -0.0027 </r>
       <r>    8.4827   -0.0000 </r>
       <r>    8.4827   -0.0000 </r>
       <r>   10.7202   -0.0000 </r>
       <r>   12.4759   -0.0000 </r>
       <r>   17.1053    0.0000 </r>
      </set>
      <set comment="kpoint 10">
       <r>  -42.4390    1.0000 </r>
       <r>  -20.0954    1.0000 </r>
       <r>  -19.8684    1.0000 </r>
       <r>  -19.8684    1.0000 </r>
       <r>   -0.9986    1.0000 </r>
       <r>    2.7836    1.0000 </r>
       <r>    7.7576    0.3420 </r>
       <r>    8.7382   -0.0000 </r>
       <r>    8.7382   -0.0000 </r>
       <r>   10.8441   -0.0000 </r>
       <r>   13.2037    0.0000 </r>
       <r>   17.0531    0.0000 </r>
      </set>
      <set comment="kpoint 11">
       <r>  -42.4312    1.0000 </r>
       <r>  -20.1515    1.0000 </r>
       <r>  -19.8874    1.0000 </r>
       <r>  -19.8874    1.0000 </r>
       <r>   -0.5742    1.0000 </r>
       <r>    2.4720    1.0000 </r>
       <r>    7.3342    1.0101 </r>
       <r>    9.0217   -0.0000 </r>
       <r>    9.0217   -0.0000 </r>
       <r>   10.9737   -0.0000 </r>
       <r>   13.9262    0.0000 </r>
       <r>   16.9380    0.0000 </r>
      </set>
      <set comment="kpoint 12">
       <r>  -42.4235    1.0000 </r>
       <r>  -20.2058    1.0000 </r>
       <r>  -19.9060    1.0000 </r>
       <r>  -19.9060    1.0000 </r>
       <r>   -0.1248    1.0000 </r>
       <r>    2.1920    1.0000 </r>
       <r>    6.9163    1.0000 </r>
       <r>    9.3320   -0.0000 </r>
       <r>    9.3320   -0.0000 </r>
       <r>   11.1057   -0.0000 </r>
       <r>   14.6352    0.0000 </r>
       <r>   16.7011    0.0000 </r>
      </set>
      <set comment="kpoint 13">
       <r>  -42.4161    1.0000 </r>
       <r>  -20.2569    1.0000 </r>
       <r>  -19.9238    1.0000 </r>
       <r>  -19.9238    1.0000 </r>
       <r>    0.3442    1.0000 </r>
       <r>    1.9446    1.0000 </r>
       <r>    6.5085    1.0000 </r>
       <r>    9.6672   -0.0000 </r>
       <r>    9.6672   -0.0000 </r>
       <r>   11.2368   -0.0000 </r>
       <r>   15.3201    0.0000 </r>
       <r>   16.3274    0.0000 </r>
      </set>
      <set comment="kpoint 14">
       <r>  -42.4093    1.0000 </r>
       <r>  -20.3036    1.0000 </r>
       <r>  -19.9404    1.0000 </r>
       <r>  -19.9404    1.0000 </r>
       <r>    0.8262    1.0000 </r>
       <r>    1.7295    1.0000 </r>
       <r>    6.1127    1.0000 </r>
       <r>   10.0244   -0.0000 </r>
       <r>   10.0244   -0.0000 </r>
       <r>   11.3627   -0.0000 </r>
       <r>   15.8601    0.0000 </r>
       <r>   15.9682    0.0000 </r>
      </set>
      <set comment="kpoint 15">
       <r>  -42.4031    1.0000 </r>
       <r>  -20.3449    1.0000 </r>
       <r>  -19.9552    1.0000 </r>
       <r>  -19.9552    1.0000 </r>
       <r>    1.3142    1.0000 </r>
       <r>    1.5472    1.0000 </r>
       <r>    5.7287    1.0000 </r>
       <r>   10.3985   -0.0000 </r>
       <r>   10.3985   -0.0000 </r>
       <r>   11.4794   -0.0000 </r>
       <r>   15.3641    0.0000 </r>
       <r>   16.5661    0.0000 </r>
      </set>
      <set comment="kpoint 16">
       <r>  -42.3978    1.0000 </r>
       <r>  -20.3798    1.0000 </r>
       <r>  -19.9678    1.0000 </r>
       <r>  -19.9678    1.0000 </r>
       <r>    1.3979    1.0000 </r>
       <r>    1.7998    1.0000 </r>
       <r>    5.3543    1.0000 </r>
       <r>   10.7812   -0.0000 </r>
       <r>   10.7812   -0.0000 </r>
       <r>   11.5825   -0.0000 </r>
       <r>   14.8943    0.0000 </r>
       <r>   16.3847    0.0000 </r>
      </set>
      <set comment="kpoint 17">
       <r>  -42.3935    1.0000 </r>
       <r>  -20.4078    1.0000 </r>
       <r>  -19.9780    1.0000 </r>
       <r>  -19.9780    1.0000 </r>
       <r>    1.2817    1.0000 </r>
       <r>    2.2734    1.0000 </r>
       <r>    4.9871    1.0000 </r>
       <r>   11.1573   -0.0000 </r>
       <r>   11.1573   -0.0000 </r>
       <r>   11.6679   -0.0000 </r>
       <r>   14.4899    0.0000 </r>
       <r>   15.8188    0.0000 </r>
      </set>
      <set comment="kpoint 18">
       <r>  -42.3904    1.0000 </r>
       <r>  -20.4281    1.0000 </r>
       <r>  -19.9855    1.0000 </r>
       <r>  -19.9855    1.0000 </r>
       <r>    1.1986    1.0000 </r>
       <r>    2.7203    1.0000 </r>
       <r>    4.6287    1.0000 </r>
       <r>   11.4984   -0.0000 </r>
       <r>   11.4984   -0.0000 </r>
       <r>   11.7320   -0.0000 </r>
       <r>   14.1802    0.0000 </r>
       <r>   15.3405    0.0000 </r>
      </set>
      <set comment="kpoint 19">
       <r>  -42.3885    1.0000 </r>
       <r>  -20.4405    1.0000 </r>
       <r>  -19.9901    1.0000 </r>
       <r>  -19.9901    1.0000 </r>
       <r>    1.1487    1.0000 </r>
       <r>    3.1066    1.0000 </r>
       <r>    4.3012    1.0000 </r>
       <r>   11.7533   -0.0000 </r>
       <r>   11.7533   -0.0000 </r>
       <r>   11.7717   -0.0000 </r>
       <r>   13.9858    0.0000 </r>
       <r>   15.0027    0.0000 </r>
      </set>
      <set comment="kpoint 20">
       <r>  -42.3878    1.0000 </r>
       <r>  -20.4446    1.0000 </r>
       <r>  -19.9916    1.0000 </r>
       <r>  -19.9916    1.0000 </r>
       <r>    1.1321    1.0000 </r>
       <r>    3.2981    1.0000 </r>
       <r>    4.1303    1.0000 </r>
       <r>   11.7851   -0.0000 </r>
       <r>   11.8513   -0.0000 </r>
       <r>   11.8513   -0.0000 </r>
       <r>   13.9194    0.0000 </r>
       <r>   14.8769    0.0000 </r>
      </set>
      <set comment="kpoint 21">
       <r>  -42.3878    1.0000 </r>
       <r>  -20.4446    1.0000 </r>
       <r>  -19.9916    1.0000 </r>
       <r>  -19.9916    1.0000 </r>
       <r>    1.1321    1.0000 </r>
       <r>    3.2981    1.0000 </r>
       <r>    4.1303    1.0000 </r>
       <r>   11.7851   -0.0000 </r>
       <r>   11.8513   -0.0000 </r>
       <r>   11.8513   -0.0000 </r>
       <r>   13.9194    0.0000 </r>
       <r>   14.8769    0.0000 </r>
      </set>
      <set comment="kpoint 22">
       <r>  -42.3878    1.0000 </r>
       <r>  -20.4439    1.0000 </r>
       <r>  -19.9927    1.0000 </r>
       <r>  -19.9914    1.0000 </r>
       <r>    1.1349    1.0000 </r>
       <r>    3.2941    1.0000 </r>
       <r>    4.1360    1.0000 </r>
       <r>   11.7667   -0.0000 </r>
       <r>   11.8473   -0.0000 </r>
       <r>   11.8602   -0.0000 </r>
       <r>   13.8515    0.0000 </r>
       <r>   14.9015    0.0000 </r>
      </set>
      <set comment="kpoint 23">
       <r>  -42.3878    1.0000 </r>
       <r>  -20.4420    1.0000 </r>
       <r>  -19.9957    1.0000 </r>
       <r>  -19.9906    1.0000 </r>
       <r>    1.1432    1.0000 </r>
       <r>    3.2821    1.0000 </r>
       <r>    4.1532    1.0000 </r>
       <r>   11.7133   -0.0000 </r>
       <r>   11.8353   -0.0000 </r>
       <r>   11.8867   -0.0000 </r>
       <r>   13.6823    0.0000 </r>
       <r>   14.9732    0.0000 </r>
      </set>
      <set comment="kpoint 24">
       <r>  -42.3878    1.0000 </r>
       <r>  -20.4387    1.0000 </r>
       <r>  -20.0008    1.0000 </r>
       <r>  -19.9893    1.0000 </r>
       <r>    1.1569    1.0000 </r>
       <r>    3.2623    1.0000 </r>
       <r>    4.1818    1.0000 </r>
       <r>   11.6295   -0.0000 </r>
       <r>   11.8153   -0.0000 </r>
       <r>   11.9305   -0.0000 </r>
       <r>   13.4615    0.0000 </r>
       <r>   15.0873    0.0000 </r>
      </set>
      <set comment="kpoint 25">
       <r>  -42.3878    1.0000 </r>
       <r>  -20.4341    1.0000 </r>
       <r>  -20.0077    1.0000 </r>
       <r>  -19.9876    1.0000 </r>
       <r>    1.1754    1.0000 </r>
       <r>    3.2353    1.0000 </r>
       <r>    4.2219    1.0000 </r>
       <r>   11.5214   -0.0000 </r>
       <r>   11.7875   -0.0000 </r>
       <r>   11.9912   -0.0000 </r>
       <r>   13.2168    0.0000 </r>
       <r>   15.2406    0.0000 </r>
      </set>
      <set comment="kpoint 26">
       <r>  -42.3879    1.0000 </r>
       <r>  -20.4283    1.0000 </r>
       <r>  -20.0165    1.0000 </r>
       <r>  -19.9853    1.0000 </r>
       <r>    1.1982    1.0000 </r>
       <r>    3.2017    1.0000 </r>
       <r>    4.2732    1.0000 </r>
       <r>   11.3953   -0.0000 </r>
       <r>   11.7520   -0.0000 </r>
       <r>   12.0682   -0.0000 </r>
       <r>   12.9620   -0.0000 </r>
       <r>   15.4180    0.0000 </r>
      </set>
      <set comment="kpoint 27">
       <r>  -42.3879    1.0000 </r>
       <r>  -20.4212    1.0000 </r>
       <r>  -20.0269    1.0000 </r>
       <r>  -19.9826    1.0000 </r>
       <r>    1.2245    1.0000 </r>
       <r>    3.1621    1.0000 </r>
       <r>    4.3357    1.0000 </r>
       <r>   11.2567   -0.0000 </r>
       <r>   11.7089   -0.0000 </r>
       <r>   12.1606   -0.0000 </r>
       <r>   12.7048   -0.0000 </r>
       <r>   15.5985    0.0000 </r>
      </set>
      <set comment="kpoint 28">
       <r>  -42.3879    1.0000 </r>
       <r>  -20.4129    1.0000 </r>
       <r>  -20.0388    1.0000 </r>
       <r>  -19.9794    1.0000 </r>
       <r>    1.2534    1.0000 </r>
       <r>    3.1172    1.0000 </r>
       <r>    4.4090    1.0000 </r>
       <r>   11.1102   -0.0000 </r>
       <r>   11.6584   -0.0000 </r>
       <r>   12.2676   -0.0000 </r>
       <r>   12.4504   -0.0000 </r>
       <r>   15.6808    0.0000 </r>
      </set>
      <set comment="kpoint 29">
       <r>  -42.3880    1.0000 </r>
       <r>  -20.4035    1.0000 </r>
       <r>  -20.0521    1.0000 </r>
       <r>  -19.9757    1.0000 </r>
       <r>    1.2839    1.0000 </r>
       <r>    3.0679    1.0000 </r>
       <r>    4.4929    1.0000 </r>
       <r>   10.9593   -0.0000 </r>
       <r>   11.6008   -0.0000 </r>
       <r>   12.2027   -0.0000 </r>
       <r>   12.3882   -0.0000 </r>
       <r>   15.7360    0.0000 </r>
      </set>
      <set comment="kpoint 30">
       <r>  -42.3881    1.0000 </r>
       <r>  -20.3929    1.0000 </r>
       <r>  -20.0666    1.0000 </r>
       <r>  -19.9717    1.0000 </r>
       <r>    1.3149    1.0000 </r>
       <r>    3.0152    1.0000 </r>
       <r>    4.5868    1.0000 </r>
       <r>   10.8068   -0.0000 </r>
       <r>   11.5364   -0.0000 </r>
       <r>   11.9652   -0.0000 </r>
       <r>   12.5213   -0.0000 </r>
       <r>   15.7691    0.0000 </r>
      </set>
      <set comment="kpoint 31">
       <r>  -42.3883    1.0000 </r>
       <r>  -20.3812    1.0000 </r>
       <r>  -20.0820    1.0000 </r>
       <r>  -19.9672    1.0000 </r>
       <r>    1.3453    1.0000 </r>
       <r>    2.9599    1.0000 </r>
       <r>    4.6900    1.0000 </r>
       <r>   10.6549   -0.0000 </r>
       <r>   11.4654   -0.0000 </r>
       <r>   11.7410   -0.0000 </r>
       <r>   12.6656   -0.0000 </r>
       <r>   15.7782    0.0000 </r>
      </set>
      <set comment="kpoint 32">
       <r>  -42.3885    1.0000 </r>
       <r>  -20.3686    1.0000 </r>
       <r>  -20.0981    1.0000 </r>
       <r>  -19.9624    1.0000 </r>
       <r>    1.3738    1.0000 </r>
       <r>    2.9028    1.0000 </r>
       <r>    4.8017    1.0000 </r>
       <r>   10.5052   -0.0000 </r>
       <r>   11.3881   -0.0000 </r>
       <r>   11.5329   -0.0000 </r>
       <r>   12.8200   -0.0000 </r>
       <r>   15.7660    0.0000 </r>
      </set>
      <set comment="kpoint 33">
       <r>  -42.3888    1.0000 </r>
       <r>  -20.3549    1.0000 </r>
       <r>  -20.1147    1.0000 </r>
       <r>  -19.9572    1.0000 </r>
       <r>    1.3990    1.0000 </r>
       <r>    2.8450    1.0000 </r>
       <r>    4.9207    1.0000 </r>
       <r>   10.3590   -0.0000 </r>
       <r>   11.3050   -0.0000 </r>
       <r>   11.3440   -0.0000 </r>
       <r>   12.9832   -0.0000 </r>
       <r>   15.7338    0.0000 </r>
      </set>
      <set comment="kpoint 34">
       <r>  -42.3892    1.0000 </r>
       <r>  -20.3404    1.0000 </r>
       <r>  -20.1316    1.0000 </r>
       <r>  -19.9517    1.0000 </r>
       <r>    1.4195    1.0000 </r>
       <r>    2.7873    1.0000 </r>
       <r>    5.0456    1.0000 </r>
       <r>   10.2173   -0.0000 </r>
       <r>   11.1772   -0.0000 </r>
       <r>   11.2164   -0.0000 </r>
       <r>   13.1539   -0.0000 </r>
       <r>   15.6827    0.0000 </r>
      </set>
      <set comment="kpoint 35">
       <r>  -42.3896    1.0000 </r>
       <r>  -20.3249    1.0000 </r>
       <r>  -20.1485    1.0000 </r>
       <r>  -19.9459    1.0000 </r>
       <r>    1.4341    1.0000 </r>
       <r>    2.7306    1.0000 </r>
       <r>    5.1749    1.0000 </r>
       <r>   10.0810   -0.0000 </r>
       <r>   11.0356   -0.0000 </r>
       <r>   11.1226   -0.0000 </r>
       <r>   13.3308    0.0000 </r>
       <r>   15.6141    0.0000 </r>
      </set>
      <set comment="kpoint 36">
       <r>  -42.3902    1.0000 </r>
       <r>  -20.3088    1.0000 </r>
       <r>  -20.1651    1.0000 </r>
       <r>  -19.9399    1.0000 </r>
       <r>    1.4414    1.0000 </r>
       <r>    2.6755    1.0000 </r>
       <r>    5.3068    1.0000 </r>
       <r>    9.9508   -0.0000 </r>
       <r>   10.9221   -0.0000 </r>
       <r>   11.0242   -0.0000 </r>
       <r>   13.5122    0.0000 </r>
       <r>   15.5289    0.0000 </r>
      </set>
      <set comment="kpoint 37">
       <r>  -42.3908    1.0000 </r>
       <r>  -20.2919    1.0000 </r>
       <r>  -20.1813    1.0000 </r>
       <r>  -19.9336    1.0000 </r>
       <r>    1.4400    1.0000 </r>
       <r>    2.6229    1.0000 </r>
       <r>    5.4394    1.0000 </r>
       <r>    9.8270   -0.0000 </r>
       <r>   10.8395   -0.0000 </r>
       <r>   10.9215   -0.0000 </r>
       <r>   13.6965    0.0000 </r>
       <r>   15.4281    0.0000 </r>
      </set>
      <set comment="kpoint 38">
       <r>  -42.3916    1.0000 </r>
       <r>  -20.2744    1.0000 </r>
       <r>  -20.1967    1.0000 </r>
       <r>  -19.9272    1.0000 </r>
       <r>    1.4289    1.0000 </r>
       <r>    2.5736    1.0000 </r>
       <r>    5.5709    1.0000 </r>
       <r>    9.7103   -0.0000 </r>
       <r>   10.7906   -0.0000 </r>
       <r>   10.8149   -0.0000 </r>
       <r>   13.8820    0.0000 </r>
       <r>   15.3130    0.0000 </r>
      </set>
      <set comment="kpoint 39">
       <r>  -42.3925    1.0000 </r>
       <r>  -20.2563    1.0000 </r>
       <r>  -20.2113    1.0000 </r>
       <r>  -19.9205    1.0000 </r>
       <r>    1.4066    1.0000 </r>
       <r>    2.5281    1.0000 </r>
       <r>    5.6996    1.0000 </r>
       <r>    9.6009   -0.0000 </r>
       <r>   10.7050   -0.0000 </r>
       <r>   10.7770   -0.0000 </r>
       <r>   14.0665    0.0000 </r>
       <r>   15.1847    0.0000 </r>
      </set>
      <set comment="kpoint 40">
       <r>  -42.3936    1.0000 </r>
       <r>  -20.2378    1.0000 </r>
       <r>  -20.2247    1.0000 </r>
       <r>  -19.9138    1.0000 </r>
       <r>    1.3726    1.0000 </r>
       <r>    2.4870    1.0000 </r>
       <r>    5.8241    1.0000 </r>
       <r>    9.4992   -0.0000 </r>
       <r>   10.5922   -0.0000 </r>
       <r>   10.8005   -0.0000 </r>
       <r>   14.2476    0.0000 </r>
       <r>   15.0449    0.0000 </r>
      </set>
      <set comment="kpoint 41">
       <r>  -42.3936    1.0000 </r>
       <r>  -20.2378    1.0000 </r>
       <r>  -20.2247    1.0000 </r>
       <r>  -19.9138    1.0000 </r>
       <r>    1.3726    1.0000 </r>
       <r>    2.4870    1.0000 </r>
       <r>    5.8241    1.0000 </r>
       <r>    9.4992   -0.0000 </r>
       <r>   10.5922   -0.0000 </r>
       <r>   10.8005   -0.0000 </r>
       <r>   14.2476    0.0000 </r>
       <r>   15.0449    0.0000 </r>
      </set>
      <set comment="kpoint 42">
       <r>  -42.3929    1.0000 </r>
       <r>  -20.2769    1.0000 </r>
       <r>  -20.1874    1.0000 </r>
       <r>  -19.9197    1.0000 </r>
       <r>    1.3743    1.0000 </r>
       <r>    2.5353    1.0000 </r>
       <r>    5.7290    1.0000 </r>
       <r>    9.5198   -0.0000 </r>
       <r>   10.7868   -0.0000 </r>
       <r>   10.8194   -0.0000 </r>
       <r>   13.8881    0.0000 </r>
       <r>   15.3601    0.0000 </r>
      </set>
      <set comment="kpoint 43">
       <r>  -42.3931    1.0000 </r>
       <r>  -20.3107    1.0000 </r>
       <r>  -20.1460    1.0000 </r>
       <r>  -19.9235    1.0000 </r>
       <r>    1.3234    1.0000 </r>
       <r>    2.5610    1.0000 </r>
       <r>    5.6989    1.0000 </r>
       <r>    9.4372   -0.0000 </r>
       <r>   10.9634   -0.0000 </r>
       <r>   11.0764   -0.0000 </r>
       <r>   13.4046    0.0000 </r>
       <r>   15.7789    0.0000 </r>
      </set>
      <set comment="kpoint 44">
       <r>  -42.3944    1.0000 </r>
       <r>  -20.3344    1.0000 </r>
       <r>  -20.1047    1.0000 </r>
       <r>  -19.9248    1.0000 </r>
       <r>    1.2436    1.0000 </r>
       <r>    2.5259    1.0000 </r>
       <r>    5.7455    1.0000 </r>
       <r>    9.3155   -0.0000 </r>
       <r>   11.2100   -0.0000 </r>
       <r>   11.3682   -0.0000 </r>
       <r>   12.9371   -0.0000 </r>
       <r>   16.1790    0.0000 </r>
      </set>
      <set comment="kpoint 45">
       <r>  -42.3969    1.0000 </r>
       <r>  -20.3465    1.0000 </r>
       <r>  -20.0642    1.0000 </r>
       <r>  -19.9235    1.0000 </r>
       <r>    1.1352    1.0000 </r>
       <r>    2.4354    1.0000 </r>
       <r>    5.8690    1.0000 </r>
       <r>    9.1840   -0.0000 </r>
       <r>   11.4293   -0.0000 </r>
       <r>   11.5981   -0.0000 </r>
       <r>   12.6398   -0.0000 </r>
       <r>   16.4999    0.0000 </r>
      </set>
      <set comment="kpoint 46">
       <r>  -42.4005    1.0000 </r>
       <r>  -20.3465    1.0000 </r>
       <r>  -20.0252    1.0000 </r>
       <r>  -19.9195    1.0000 </r>
       <r>    0.9789    1.0000 </r>
       <r>    2.3314    1.0000 </r>
       <r>    6.0586    1.0000 </r>
       <r>    9.0540   -0.0000 </r>
       <r>   11.3157   -0.0000 </r>
       <r>   11.7231   -0.0000 </r>
       <r>   12.8177   -0.0000 </r>
       <r>   16.3734    0.0000 </r>
      </set>
      <set comment="kpoint 47">
       <r>  -42.4053    1.0000 </r>
       <r>  -20.3340    1.0000 </r>
       <r>  -19.9882    1.0000 </r>
       <r>  -19.9127    1.0000 </r>
       <r>    0.7500    1.0000 </r>
       <r>    2.2682    1.0000 </r>
       <r>    6.3000    1.0000 </r>
       <r>    8.9292   -0.0000 </r>
       <r>   10.9397   -0.0000 </r>
       <r>   11.7255   -0.0000 </r>
       <r>   13.3811    0.0000 </r>
       <r>   16.0052    0.0000 </r>
      </set>
      <set comment="kpoint 48">
       <r>  -42.4111    1.0000 </r>
       <r>  -20.3094    1.0000 </r>
       <r>  -19.9536    1.0000 </r>
       <r>  -19.9033    1.0000 </r>
       <r>    0.4424    1.0000 </r>
       <r>    2.2787    1.0000 </r>
       <r>    6.5805    1.0000 </r>
       <r>    8.8095   -0.0000 </r>
       <r>   10.5125   -0.0000 </r>
       <r>   11.6174   -0.0000 </r>
       <r>   14.0479    0.0000 </r>
       <r>   15.6835    0.0000 </r>
      </set>
      <set comment="kpoint 49">
       <r>  -42.4178    1.0000 </r>
       <r>  -20.2736    1.0000 </r>
       <r>  -19.9216    1.0000 </r>
       <r>  -19.8916    1.0000 </r>
       <r>    0.0743    1.0000 </r>
       <r>    2.3676    1.0000 </r>
       <r>    6.8888    1.0000 </r>
       <r>    8.6929   -0.0000 </r>
       <r>   10.0995   -0.0000 </r>
       <r>   11.4315   -0.0000 </r>
       <r>   14.4153    0.0000 </r>
       <r>   15.7218    0.0000 </r>
      </set>
      <set comment="kpoint 50">
       <r>  -42.4252    1.0000 </r>
       <r>  -20.2279    1.0000 </r>
       <r>  -19.8926    1.0000 </r>
       <r>  -19.8780    1.0000 </r>
       <r>   -0.3286    1.0000 </r>
       <r>    2.5267    1.0000 </r>
       <r>    7.2121    1.0010 </r>
       <r>    8.5756   -0.0000 </r>
       <r>    9.7246   -0.0000 </r>
       <r>   11.2061   -0.0000 </r>
       <r>   14.1292    0.0000 </r>
       <r>   16.3748    0.0000 </r>
      </set>
      <set comment="kpoint 51">
       <r>  -42.4331    1.0000 </r>
       <r>  -20.1741    1.0000 </r>
       <r>  -19.8665    1.0000 </r>
       <r>  -19.8630    1.0000 </r>
       <r>   -0.7436    1.0000 </r>
       <r>    2.7480    1.0000 </r>
       <r>    7.5312    1.0179 </r>
       <r>    8.4538   -0.0000 </r>
       <r>    9.4064   -0.0000 </r>
       <r>   10.9746   -0.0000 </r>
       <r>   13.5720    0.0000 </r>
       <r>   16.5596    0.0000 </r>
      </set>
      <set comment="kpoint 52">
       <r>  -42.4412    1.0000 </r>
       <r>  -20.1144    1.0000 </r>
       <r>  -19.8470    1.0000 </r>
       <r>  -19.8436    1.0000 </r>
       <r>   -1.1530    1.0000 </r>
       <r>    3.0258    1.0000 </r>
       <r>    7.8090    0.1599 </r>
       <r>    8.3244   -0.0001 </r>
       <r>    9.1761   -0.0000 </r>
       <r>   10.7618   -0.0000 </r>
       <r>   12.9103   -0.0000 </r>
       <r>   16.5455    0.0000 </r>
      </set>
      <set comment="kpoint 53">
       <r>  -42.4492    1.0000 </r>
       <r>  -20.0514    1.0000 </r>
       <r>  -19.8309    1.0000 </r>
       <r>  -19.8237    1.0000 </r>
       <r>   -1.5431    1.0000 </r>
       <r>    3.3560    1.0000 </r>
       <r>    7.9754   -0.0350 </r>
       <r>    8.1872   -0.0023 </r>
       <r>    9.0949   -0.0000 </r>
       <r>   10.5826   -0.0000 </r>
       <r>   12.1921   -0.0000 </r>
       <r>   16.6012    0.0000 </r>
      </set>
      <set comment="kpoint 54">
       <r>  -42.4569    1.0000 </r>
       <r>  -19.9881    1.0000 </r>
       <r>  -19.8152    1.0000 </r>
       <r>  -19.8068    1.0000 </r>
       <r>   -1.9027    1.0000 </r>
       <r>    3.7357    1.0000 </r>
       <r>    7.9797   -0.0347 </r>
       <r>    8.0453   -0.0217 </r>
       <r>    9.2019   -0.0000 </r>
       <r>   10.4431   -0.0000 </r>
       <r>   11.4441   -0.0000 </r>
       <r>   16.7471    0.0000 </r>
      </set>
      <set comment="kpoint 55">
       <r>  -42.4640    1.0000 </r>
       <r>  -19.9275    1.0000 </r>
       <r>  -19.8005    1.0000 </r>
       <r>  -19.7928    1.0000 </r>
       <r>   -2.2227    1.0000 </r>
       <r>    4.1620    1.0000 </r>
       <r>    7.8840    0.0044 </r>
       <r>    7.9055   -0.0163 </r>
       <r>    9.4218   -0.0000 </r>
       <r>   10.3420   -0.0000 </r>
       <r>   10.6854   -0.0000 </r>
       <r>   16.9897    0.0000 </r>
      </set>
      <set comment="kpoint 56">
       <r>  -42.4702    1.0000 </r>
       <r>  -19.8726    1.0000 </r>
       <r>  -19.7875    1.0000 </r>
       <r>  -19.7815    1.0000 </r>
       <r>   -2.4954    1.0000 </r>
       <r>    4.6322    1.0000 </r>
       <r>    7.7656    0.3105 </r>
       <r>    7.7763    0.2701 </r>
       <r>    9.6636   -0.0000 </r>
       <r>    9.9317   -0.0000 </r>
       <r>   10.2739   -0.0000 </r>
       <r>   17.3302    0.0000 </r>
      </set>
      <set comment="kpoint 57">
       <r>  -42.4752    1.0000 </r>
       <r>  -19.8264    1.0000 </r>
       <r>  -19.7768    1.0000 </r>
       <r>  -19.7729    1.0000 </r>
       <r>   -2.7142    1.0000 </r>
       <r>    5.1411    1.0000 </r>
       <r>    7.6593    0.7422 </r>
       <r>    7.6661    0.7173 </r>
       <r>    9.1942   -0.0000 </r>
       <r>    9.8814   -0.0000 </r>
       <r>   10.2311   -0.0000 </r>
       <r>   17.7639    0.0000 </r>
      </set>
      <set comment="kpoint 58">
       <r>  -42.4790    1.0000 </r>
       <r>  -19.7914    1.0000 </r>
       <r>  -19.7687    1.0000 </r>
       <r>  -19.7669    1.0000 </r>
       <r>   -2.8742    1.0000 </r>
       <r>    5.6782    1.0000 </r>
       <r>    7.5785    0.9616 </r>
       <r>    7.5820    0.9553 </r>
       <r>    8.4907   -0.0000 </r>
       <r>   10.0491   -0.0000 </r>
       <r>   10.2064   -0.0000 </r>
       <r>   18.2727    0.0000 </r>
      </set>
      <set comment="kpoint 59">
       <r>  -42.4813    1.0000 </r>
       <r>  -19.7695    1.0000 </r>
       <r>  -19.7638    1.0000 </r>
       <r>  -19.7633    1.0000 </r>
       <r>   -2.9717    1.0000 </r>
       <r>    6.2089    1.0000 </r>
       <r>    7.5285    1.0198 </r>
       <r>    7.5295    1.0191 </r>
       <r>    7.8587    0.0415 </r>
       <r>   10.1545   -0.0000 </r>
       <r>   10.1940   -0.0000 </r>
       <r>   18.7975    0.0000 </r>
      </set>
      <set comment="kpoint 60">
       <r>  -42.4821    1.0000 </r>
       <r>  -19.7621    1.0000 </r>
       <r>  -19.7621    1.0000 </r>
       <r>  -19.7621    1.0000 </r>
       <r>   -3.0044    1.0000 </r>
       <r>    6.5219    1.0000 </r>
       <r>    7.5117    1.0287 </r>
       <r>    7.5117    1.0287 </r>
       <r>    7.5117    1.0287 </r>
       <r>   10.1904   -0.0000 </r>
       <r>   10.1904   -0.0000 </r>
       <r>   19.0902    0.0000 </r>
      </set>
     </set>
    </set>
   </array>
  </eigenvalues>
  <separator name="orbital magnetization" >
   <v name="MAGDIPOLOUT">      0.00000000      0.00000000      0.00000000</v>
  </separator>
  <dos>
   <i name="efermi">      7.71946825 </i>
   <total>
    <array>
     <dimension dim="1">gridpoints</dimension>
     <dimension dim="2">spin</dimension>
     <field>energy</field>
     <field>total</field>
     <field>integrated</field>
     <set>
      <set comment="spin 1">
       <r>   -45.5607     0.0000     0.0000 </r>
       <r>   -45.5268     0.0000     0.0000 </r>
       <r>   -45.4930     0.0000     0.0000 </r>
       <r>   -45.4591     0.0000     0.0000 </r>
       <r>   -45.4252     0.0000     0.0000 </r>
       <r>   -45.3913     0.0000     0.0000 </r>
       <r>   -45.3574     0.0000     0.0000 </r>
       <r>   -45.3235     0.0000     0.0000 </r>
       <r>   -45.2897     0.0000     0.0000 </r>
       <r>   -45.2558     0.0000     0.0000 </r>
       <r>   -45.2219     0.0000     0.0000 </r>
       <r>   -45.1880     0.0000     0.0000 </r>
       <r>   -45.1541     0.0000     0.0000 </r>
       <r>   -45.1203     0.0000     0.0000 </r>
       <r>   -45.0864     0.0000     0.0000 </r>
       <r>   -45.0525     0.0000     0.0000 </r>
       <r>   -45.0186     0.0000     0.0000 </r>
       <r>   -44.9847     0.0000     0.0000 </r>
       <r>   -44.9509     0.0000     0.0000 </r>
       <r>   -44.9170     0.0000     0.0000 </r>
       <r>   -44.8831     0.0000     0.0000 </r>
       <r>   -44.8492     0.0000     0.0000 </r>
       <r>   -44.8153     0.0000     0.0000 </r>
       <r>   -44.7814     0.0000     0.0000 </r>
       <r>   -44.7476     0.0000     0.0000 </r>
       <r>   -44.7137     0.0000     0.0000 </r>
       <r>   -44.6798     0.0000     0.0000 </r>
       <r>   -44.6459     0.0000     0.0000 </r>
       <r>   -44.6120     0.0000     0.0000 </r>
       <r>   -44.5782     0.0000     0.0000 </r>
       <r>   -44.5443     0.0000     0.0000 </r>
       <r>   -44.5104     0.0000     0.0000 </r>
       <r>   -44.4765     0.0000     0.0000 </r>
       <r>   -44.4426     0.0000     0.0000 </r>
       <r>   -44.4087     0.0000     0.0000 </r>
       <r>   -44.3749     0.0000     0.0000 </r>
       <r>   -44.3410     0.0000     0.0000 </r>
       <r>   -44.3071     0.0000     0.0000 </r>
       <r>   -44.2732     0.0000     0.0000 </r>
       <r>   -44.2393     0.0000     0.0000 </r>
       <r>   -44.2055     0.0000     0.0000 </r>
       <r>   -44.1716     0.0000     0.0000 </r>
       <r>   -44.1377     0.0000     0.0000 </r>
       <r>   -44.1038    -0.0000    -0.0000 </r>
       <r>   -44.0699    -0.0000    -0.0000 </r>
       <r>   -44.0360    -0.0000    -0.0000 </r>
       <r>   -44.0022    -0.0000    -0.0000 </r>
       <r>   -43.9683    -0.0000    -0.0000 </r>
       <r>   -43.9344    -0.0000    -0.0000 </r>
       <r>   -43.9005    -0.0000    -0.0000 </r>
       <r>   -43.8666    -0.0000    -0.0000 </r>
       <r>   -43.8328    -0.0000    -0.0000 </r>
       <r>   -43.7989    -0.0000    -0.0000 </r>
       <r>   -43.7650    -0.0000    -0.0000 </r>
       <r>   -43.7311    -0.0000    -0.0000 </r>
       <r>   -43.6972    -0.0000    -0.0000 </r>
       <r>   -43.6633    -0.0000    -0.0000 </r>
       <r>   -43.6295    -0.0000    -0.0000 </r>
       <r>   -43.5956    -0.0000    -0.0000 </r>
       <r>   -43.5617    -0.0000    -0.0000 </r>
       <r>   -43.5278    -0.0000    -0.0000 </r>
       <r>   -43.4939    -0.0000    -0.0000 </r>
       <r>   -43.4601    -0.0000    -0.0000 </r>
       <r>   -43.4262    -0.0000    -0.0000 </r>
       <r>   -43.3923    -0.0000    -0.0000 </r>
       <r>   -43.3584    -0.0000    -0.0000 </r>
       <r>   -43.3245    -0.0000    -0.0000 </r>
       <r>   -43.2906    -0.0000    -0.0000 </r>
       <r>   -43.2568    -0.0000    -0.0000 </r>
       <r>   -43.2229    -0.0000    -0.0000 </r>
       <r>   -43.1890    -0.0000    -0.0000 </r>
       <r>   -43.1551    -0.0001    -0.0000 </r>
       <r>   -43.1212    -0.0003    -0.0000 </r>
       <r>   -43.0874    -0.0008    -0.0000 </r>
       <r>   -43.0535    -0.0021    -0.0001 </r>
       <r>   -43.0196    -0.0051    -0.0003 </r>
       <r>   -42.9857    -0.0115    -0.0007 </r>
       <r>   -42.9518    -0.0242    -0.0015 </r>
       <r>   -42.9179    -0.0474    -0.0031 </r>
       <r>   -42.8841    -0.0865    -0.0060 </r>
       <r>   -42.8502    -0.1456    -0.0110 </r>
       <r>   -42.8163    -0.2245    -0.0186 </r>
       <r>   -42.7824    -0.3116    -0.0291 </r>
       <r>   -42.7485    -0.3768    -0.0419 </r>
       <r>   -42.7147    -0.3656    -0.0543 </r>
       <r>   -42.6808    -0.1993    -0.0610 </r>
       <r>   -42.6469     0.2129    -0.0538 </r>
       <r>   -42.6130     0.9482    -0.0217 </r>
       <r>   -42.5791     2.0349     0.0472 </r>
       <r>   -42.5452     3.4194     0.1631 </r>
       <r>   -42.5114     4.9498     0.3308 </r>
       <r>   -42.4775     6.3929     0.5474 </r>
       <r>   -42.4436     7.4843     0.8010 </r>
       <r>   -42.4097     8.0011     1.0721 </r>
       <r>   -42.3758     7.8302     1.3374 </r>
       <r>   -42.3420     7.0057     1.5747 </r>
       <r>   -42.3081     5.6988     1.7678 </r>
       <r>   -42.2742     4.1639     1.9089 </r>
       <r>   -42.2403     2.6638     1.9992 </r>
       <r>   -42.2064     1.4020     2.0467 </r>
       <r>   -42.1725     0.4855     2.0631 </r>
       <r>   -42.1387    -0.0758     2.0606 </r>
       <r>   -42.1048    -0.3424     2.0490 </r>
       <r>   -42.0709    -0.4067     2.0352 </r>
       <r>   -42.0370    -0.3595     2.0230 </r>
       <r>   -42.0031    -0.2700     2.0138 </r>
       <r>   -41.9693    -0.1804     2.0077 </r>
       <r>   -41.9354    -0.1094     2.0040 </r>
       <r>   -41.9015    -0.0610     2.0020 </r>
       <r>   -41.8676    -0.0315     2.0009 </r>
       <r>   -41.8337    -0.0151     2.0004 </r>
       <r>   -41.7999    -0.0067     2.0002 </r>
       <r>   -41.7660    -0.0028     2.0001 </r>
       <r>   -41.7321    -0.0011     2.0000 </r>
       <r>   -41.6982    -0.0004     2.0000 </r>
       <r>   -41.6643    -0.0001     2.0000 </r>
       <r>   -41.6304    -0.0000     2.0000 </r>
       <r>   -41.5966    -0.0000     2.0000 </r>
       <r>   -41.5627    -0.0000     2.0000 </r>
       <r>   -41.5288    -0.0000     2.0000 </r>
       <r>   -41.4949    -0.0000     2.0000 </r>
       <r>   -41.4610    -0.0000     2.0000 </r>
       <r>   -41.4272    -0.0000     2.0000 </r>
       <r>   -41.3933    -0.0000     2.0000 </r>
       <r>   -41.3594    -0.0000     2.0000 </r>
       <r>   -41.3255    -0.0000     2.0000 </r>
       <r>   -41.2916    -0.0000     2.0000 </r>
       <r>   -41.2577    -0.0000     2.0000 </r>
       <r>   -41.2239    -0.0000     2.0000 </r>
       <r>   -41.1900    -0.0000     2.0000 </r>
       <r>   -41.1561    -0.0000     2.0000 </r>
       <r>   -41.1222     0.0000     2.0000 </r>
       <r>   -41.0883     0.0000     2.0000 </r>
       <r>   -41.0545     0.0000     2.0000 </r>
       <r>   -41.0206     0.0000     2.0000 </r>
       <r>   -40.9867     0.0000     2.0000 </r>
       <r>   -40.9528     0.0000     2.0000 </r>
       <r>   -40.9189     0.0000     2.0000 </r>
       <r>   -40.8850     0.0000     2.0000 </r>
       <r>   -40.8512     0.0000     2.0000 </r>
       <r>   -40.8173     0.0000     2.0000 </r>
       <r>   -40.7834     0.0000     2.0000 </r>
       <r>   -40.7495     0.0000     2.0000 </r>
       <r>   -40.7156     0.0000     2.0000 </r>
       <r>   -40.6818     0.0000     2.0000 </r>
       <r>   -40.6479     0.0000     2.0000 </r>
       <r>   -40.6140     0.0000     2.0000 </r>
       <r>   -40.5801     0.0000     2.0000 </r>
       <r>   -40.5462     0.0000     2.0000 </r>
       <r>   -40.5123     0.0000     2.0000 </r>
       <r>   -40.4785     0.0000     2.0000 </r>
       <r>   -40.4446     0.0000     2.0000 </r>
       <r>   -40.4107     0.0000     2.0000 </r>
       <r>   -40.3768     0.0000     2.0000 </r>
       <r>   -40.3429     0.0000     2.0000 </r>
       <r>   -40.3091     0.0000     2.0000 </r>
       <r>   -40.2752     0.0000     2.0000 </r>
       <r>   -40.2413     0.0000     2.0000 </r>
       <r>   -40.2074     0.0000     2.0000 </r>
       <r>   -40.1735     0.0000     2.0000 </r>
       <r>   -40.1396     0.0000     2.0000 </r>
       <r>   -40.1058     0.0000     2.0000 </r>
       <r>   -40.0719     0.0000     2.0000 </r>
       <r>   -40.0380     0.0000     2.0000 </r>
       <r>   -40.0041     0.0000     2.0000 </r>
       <r>   -39.9702     0.0000     2.0000 </r>
       <r>   -39.9364     0.0000     2.0000 </r>
       <r>   -39.9025     0.0000     2.0000 </r>
       <r>   -39.8686     0.0000     2.0000 </r>
       <r>   -39.8347     0.0000     2.0000 </r>
       <r>   -39.8008     0.0000     2.0000 </r>
       <r>   -39.7669     0.0000     2.0000 </r>
       <r>   -39.7331     0.0000     2.0000 </r>
       <r>   -39.6992     0.0000     2.0000 </r>
       <r>   -39.6653     0.0000     2.0000 </r>
       <r>   -39.6314     0.0000     2.0000 </r>
       <r>   -39.5975     0.0000     2.0000 </r>
       <r>   -39.5637     0.0000     2.0000 </r>
       <r>   -39.5298     0.0000     2.0000 </r>
       <r>   -39.4959     0.0000     2.0000 </r>
       <r>   -39.4620     0.0000     2.0000 </r>
       <r>   -39.4281     0.0000     2.0000 </r>
       <r>   -39.3942     0.0000     2.0000 </r>
       <r>   -39.3604     0.0000     2.0000 </r>
       <r>   -39.3265     0.0000     2.0000 </r>
       <r>   -39.2926     0.0000     2.0000 </r>
       <r>   -39.2587     0.0000     2.0000 </r>
       <r>   -39.2248     0.0000     2.0000 </r>
       <r>   -39.1910     0.0000     2.0000 </r>
       <r>   -39.1571     0.0000     2.0000 </r>
       <r>   -39.1232     0.0000     2.0000 </r>
       <r>   -39.0893     0.0000     2.0000 </r>
       <r>   -39.0554     0.0000     2.0000 </r>
       <r>   -39.0215     0.0000     2.0000 </r>
       <r>   -38.9877     0.0000     2.0000 </r>
       <r>   -38.9538     0.0000     2.0000 </r>
       <r>   -38.9199     0.0000     2.0000 </r>
       <r>   -38.8860     0.0000     2.0000 </r>
       <r>   -38.8521     0.0000     2.0000 </r>
       <r>   -38.8183     0.0000     2.0000 </r>
       <r>   -38.7844     0.0000     2.0000 </r>
       <r>   -38.7505     0.0000     2.0000 </r>
       <r>   -38.7166     0.0000     2.0000 </r>
       <r>   -38.6827     0.0000     2.0000 </r>
       <r>   -38.6489     0.0000     2.0000 </r>
       <r>   -38.6150     0.0000     2.0000 </r>
       <r>   -38.5811     0.0000     2.0000 </r>
       <r>   -38.5472     0.0000     2.0000 </r>
       <r>   -38.5133     0.0000     2.0000 </r>
       <r>   -38.4794     0.0000     2.0000 </r>
       <r>   -38.4456     0.0000     2.0000 </r>
       <r>   -38.4117     0.0000     2.0000 </r>
       <r>   -38.3778     0.0000     2.0000 </r>
       <r>   -38.3439     0.0000     2.0000 </r>
       <r>   -38.3100     0.0000     2.0000 </r>
       <r>   -38.2762     0.0000     2.0000 </r>
       <r>   -38.2423     0.0000     2.0000 </r>
       <r>   -38.2084     0.0000     2.0000 </r>
       <r>   -38.1745     0.0000     2.0000 </r>
       <r>   -38.1406     0.0000     2.0000 </r>
       <r>   -38.1067     0.0000     2.0000 </r>
       <r>   -38.0729     0.0000     2.0000 </r>
       <r>   -38.0390     0.0000     2.0000 </r>
       <r>   -38.0051     0.0000     2.0000 </r>
       <r>   -37.9712     0.0000     2.0000 </r>
       <r>   -37.9373     0.0000     2.0000 </r>
       <r>   -37.9035     0.0000     2.0000 </r>
       <r>   -37.8696     0.0000     2.0000 </r>
       <r>   -37.8357     0.0000     2.0000 </r>
       <r>   -37.8018     0.0000     2.0000 </r>
       <r>   -37.7679     0.0000     2.0000 </r>
       <r>   -37.7340     0.0000     2.0000 </r>
       <r>   -37.7002     0.0000     2.0000 </r>
       <r>   -37.6663     0.0000     2.0000 </r>
       <r>   -37.6324     0.0000     2.0000 </r>
       <r>   -37.5985     0.0000     2.0000 </r>
       <r>   -37.5646     0.0000     2.0000 </r>
       <r>   -37.5308     0.0000     2.0000 </r>
       <r>   -37.4969     0.0000     2.0000 </r>
       <r>   -37.4630     0.0000     2.0000 </r>
       <r>   -37.4291     0.0000     2.0000 </r>
       <r>   -37.3952     0.0000     2.0000 </r>
       <r>   -37.3613     0.0000     2.0000 </r>
       <r>   -37.3275     0.0000     2.0000 </r>
       <r>   -37.2936     0.0000     2.0000 </r>
       <r>   -37.2597     0.0000     2.0000 </r>
       <r>   -37.2258     0.0000     2.0000 </r>
       <r>   -37.1919     0.0000     2.0000 </r>
       <r>   -37.1581     0.0000     2.0000 </r>
       <r>   -37.1242     0.0000     2.0000 </r>
       <r>   -37.0903     0.0000     2.0000 </r>
       <r>   -37.0564     0.0000     2.0000 </r>
       <r>   -37.0225     0.0000     2.0000 </r>
       <r>   -36.9886     0.0000     2.0000 </r>
       <r>   -36.9548     0.0000     2.0000 </r>
       <r>   -36.9209     0.0000     2.0000 </r>
       <r>   -36.8870     0.0000     2.0000 </r>
       <r>   -36.8531     0.0000     2.0000 </r>
       <r>   -36.8192     0.0000     2.0000 </r>
       <r>   -36.7854     0.0000     2.0000 </r>
       <r>   -36.7515     0.0000     2.0000 </r>
       <r>   -36.7176     0.0000     2.0000 </r>
       <r>   -36.6837     0.0000     2.0000 </r>
       <r>   -36.6498     0.0000     2.0000 </r>
       <r>   -36.6159     0.0000     2.0000 </r>
       <r>   -36.5821     0.0000     2.0000 </r>
       <r>   -36.5482     0.0000     2.0000 </r>
       <r>   -36.5143     0.0000     2.0000 </r>
       <r>   -36.4804     0.0000     2.0000 </r>
       <r>   -36.4465     0.0000     2.0000 </r>
       <r>   -36.4127     0.0000     2.0000 </r>
       <r>   -36.3788     0.0000     2.0000 </r>
       <r>   -36.3449     0.0000     2.0000 </r>
       <r>   -36.3110     0.0000     2.0000 </r>
       <r>   -36.2771     0.0000     2.0000 </r>
       <r>   -36.2432     0.0000     2.0000 </r>
       <r>   -36.2094     0.0000     2.0000 </r>
       <r>   -36.1755     0.0000     2.0000 </r>
       <r>   -36.1416     0.0000     2.0000 </r>
       <r>   -36.1077     0.0000     2.0000 </r>
       <r>   -36.0738     0.0000     2.0000 </r>
       <r>   -36.0400     0.0000     2.0000 </r>
       <r>   -36.0061     0.0000     2.0000 </r>
       <r>   -35.9722     0.0000     2.0000 </r>
       <r>   -35.9383     0.0000     2.0000 </r>
       <r>   -35.9044     0.0000     2.0000 </r>
       <r>   -35.8705     0.0000     2.0000 </r>
       <r>   -35.8367     0.0000     2.0000 </r>
       <r>   -35.8028     0.0000     2.0000 </r>
       <r>   -35.7689     0.0000     2.0000 </r>
       <r>   -35.7350     0.0000     2.0000 </r>
       <r>   -35.7011     0.0000     2.0000 </r>
       <r>   -35.6673     0.0000     2.0000 </r>
       <r>   -35.6334     0.0000     2.0000 </r>
       <r>   -35.5995     0.0000     2.0000 </r>
       <r>   -35.5656     0.0000     2.0000 </r>
       <r>   -35.5317     0.0000     2.0000 </r>
       <r>   -35.4979     0.0000     2.0000 </r>
       <r>   -35.4640     0.0000     2.0000 </r>
       <r>   -35.4301     0.0000     2.0000 </r>
       <r>   -35.3962     0.0000     2.0000 </r>
       <r>   -35.3623     0.0000     2.0000 </r>
       <r>   -35.3284     0.0000     2.0000 </r>
       <r>   -35.2946     0.0000     2.0000 </r>
       <r>   -35.2607     0.0000     2.0000 </r>
       <r>   -35.2268     0.0000     2.0000 </r>
       <r>   -35.1929     0.0000     2.0000 </r>
       <r>   -35.1590     0.0000     2.0000 </r>
       <r>   -35.1252     0.0000     2.0000 </r>
       <r>   -35.0913     0.0000     2.0000 </r>
       <r>   -35.0574     0.0000     2.0000 </r>
       <r>   -35.0235     0.0000     2.0000 </r>
       <r>   -34.9896     0.0000     2.0000 </r>
       <r>   -34.9557     0.0000     2.0000 </r>
       <r>   -34.9219     0.0000     2.0000 </r>
       <r>   -34.8880     0.0000     2.0000 </r>
       <r>   -34.8541     0.0000     2.0000 </r>
       <r>   -34.8202     0.0000     2.0000 </r>
       <r>   -34.7863     0.0000     2.0000 </r>
       <r>   -34.7525     0.0000     2.0000 </r>
       <r>   -34.7186     0.0000     2.0000 </r>
       <r>   -34.6847     0.0000     2.0000 </r>
       <r>   -34.6508     0.0000     2.0000 </r>
       <r>   -34.6169     0.0000     2.0000 </r>
       <r>   -34.5830     0.0000     2.0000 </r>
       <r>   -34.5492     0.0000     2.0000 </r>
       <r>   -34.5153     0.0000     2.0000 </r>
       <r>   -34.4814     0.0000     2.0000 </r>
       <r>   -34.4475     0.0000     2.0000 </r>
       <r>   -34.4136     0.0000     2.0000 </r>
       <r>   -34.3798     0.0000     2.0000 </r>
       <r>   -34.3459     0.0000     2.0000 </r>
       <r>   -34.3120     0.0000     2.0000 </r>
       <r>   -34.2781     0.0000     2.0000 </r>
       <r>   -34.2442     0.0000     2.0000 </r>
       <r>   -34.2103     0.0000     2.0000 </r>
       <r>   -34.1765     0.0000     2.0000 </r>
       <r>   -34.1426     0.0000     2.0000 </r>
       <r>   -34.1087     0.0000     2.0000 </r>
       <r>   -34.0748     0.0000     2.0000 </r>
       <r>   -34.0409     0.0000     2.0000 </r>
       <r>   -34.0071     0.0000     2.0000 </r>
       <r>   -33.9732     0.0000     2.0000 </r>
       <r>   -33.9393     0.0000     2.0000 </r>
       <r>   -33.9054     0.0000     2.0000 </r>
       <r>   -33.8715     0.0000     2.0000 </r>
       <r>   -33.8376     0.0000     2.0000 </r>
       <r>   -33.8038     0.0000     2.0000 </r>
       <r>   -33.7699     0.0000     2.0000 </r>
       <r>   -33.7360     0.0000     2.0000 </r>
       <r>   -33.7021     0.0000     2.0000 </r>
       <r>   -33.6682     0.0000     2.0000 </r>
       <r>   -33.6344     0.0000     2.0000 </r>
       <r>   -33.6005     0.0000     2.0000 </r>
       <r>   -33.5666     0.0000     2.0000 </r>
       <r>   -33.5327     0.0000     2.0000 </r>
       <r>   -33.4988     0.0000     2.0000 </r>
       <r>   -33.4649     0.0000     2.0000 </r>
       <r>   -33.4311     0.0000     2.0000 </r>
       <r>   -33.3972     0.0000     2.0000 </r>
       <r>   -33.3633     0.0000     2.0000 </r>
       <r>   -33.3294     0.0000     2.0000 </r>
       <r>   -33.2955     0.0000     2.0000 </r>
       <r>   -33.2617     0.0000     2.0000 </r>
       <r>   -33.2278     0.0000     2.0000 </r>
       <r>   -33.1939     0.0000     2.0000 </r>
       <r>   -33.1600     0.0000     2.0000 </r>
       <r>   -33.1261     0.0000     2.0000 </r>
       <r>   -33.0922     0.0000     2.0000 </r>
       <r>   -33.0584     0.0000     2.0000 </r>
       <r>   -33.0245     0.0000     2.0000 </r>
       <r>   -32.9906     0.0000     2.0000 </r>
       <r>   -32.9567     0.0000     2.0000 </r>
       <r>   -32.9228     0.0000     2.0000 </r>
       <r>   -32.8890     0.0000     2.0000 </r>
       <r>   -32.8551     0.0000     2.0000 </r>
       <r>   -32.8212     0.0000     2.0000 </r>
       <r>   -32.7873     0.0000     2.0000 </r>
       <r>   -32.7534     0.0000     2.0000 </r>
       <r>   -32.7195     0.0000     2.0000 </r>
       <r>   -32.6857     0.0000     2.0000 </r>
       <r>   -32.6518     0.0000     2.0000 </r>
       <r>   -32.6179     0.0000     2.0000 </r>
       <r>   -32.5840     0.0000     2.0000 </r>
       <r>   -32.5501     0.0000     2.0000 </r>
       <r>   -32.5163     0.0000     2.0000 </r>
       <r>   -32.4824     0.0000     2.0000 </r>
       <r>   -32.4485     0.0000     2.0000 </r>
       <r>   -32.4146     0.0000     2.0000 </r>
       <r>   -32.3807     0.0000     2.0000 </r>
       <r>   -32.3469     0.0000     2.0000 </r>
       <r>   -32.3130     0.0000     2.0000 </r>
       <r>   -32.2791     0.0000     2.0000 </r>
       <r>   -32.2452     0.0000     2.0000 </r>
       <r>   -32.2113     0.0000     2.0000 </r>
       <r>   -32.1774     0.0000     2.0000 </r>
       <r>   -32.1436     0.0000     2.0000 </r>
       <r>   -32.1097     0.0000     2.0000 </r>
       <r>   -32.0758     0.0000     2.0000 </r>
       <r>   -32.0419     0.0000     2.0000 </r>
       <r>   -32.0080     0.0000     2.0000 </r>
       <r>   -31.9742     0.0000     2.0000 </r>
       <r>   -31.9403     0.0000     2.0000 </r>
       <r>   -31.9064     0.0000     2.0000 </r>
       <r>   -31.8725     0.0000     2.0000 </r>
       <r>   -31.8386     0.0000     2.0000 </r>
       <r>   -31.8047     0.0000     2.0000 </r>
       <r>   -31.7709     0.0000     2.0000 </r>
       <r>   -31.7370     0.0000     2.0000 </r>
       <r>   -31.7031     0.0000     2.0000 </r>
       <r>   -31.6692     0.0000     2.0000 </r>
       <r>   -31.6353     0.0000     2.0000 </r>
       <r>   -31.6015     0.0000     2.0000 </r>
       <r>   -31.5676     0.0000     2.0000 </r>
       <r>   -31.5337     0.0000     2.0000 </r>
       <r>   -31.4998     0.0000     2.0000 </r>
       <r>   -31.4659     0.0000     2.0000 </r>
       <r>   -31.4320     0.0000     2.0000 </r>
       <r>   -31.3982     0.0000     2.0000 </r>
       <r>   -31.3643     0.0000     2.0000 </r>
       <r>   -31.3304     0.0000     2.0000 </r>
       <r>   -31.2965     0.0000     2.0000 </r>
       <r>   -31.2626     0.0000     2.0000 </r>
       <r>   -31.2288     0.0000     2.0000 </r>
       <r>   -31.1949     0.0000     2.0000 </r>
       <r>   -31.1610     0.0000     2.0000 </r>
       <r>   -31.1271     0.0000     2.0000 </r>
       <r>   -31.0932     0.0000     2.0000 </r>
       <r>   -31.0593     0.0000     2.0000 </r>
       <r>   -31.0255     0.0000     2.0000 </r>
       <r>   -30.9916     0.0000     2.0000 </r>
       <r>   -30.9577     0.0000     2.0000 </r>
       <r>   -30.9238     0.0000     2.0000 </r>
       <r>   -30.8899     0.0000     2.0000 </r>
       <r>   -30.8561     0.0000     2.0000 </r>
       <r>   -30.8222     0.0000     2.0000 </r>
       <r>   -30.7883     0.0000     2.0000 </r>
       <r>   -30.7544     0.0000     2.0000 </r>
       <r>   -30.7205     0.0000     2.0000 </r>
       <r>   -30.6866     0.0000     2.0000 </r>
       <r>   -30.6528     0.0000     2.0000 </r>
       <r>   -30.6189     0.0000     2.0000 </r>
       <r>   -30.5850     0.0000     2.0000 </r>
       <r>   -30.5511     0.0000     2.0000 </r>
       <r>   -30.5172     0.0000     2.0000 </r>
       <r>   -30.4834     0.0000     2.0000 </r>
       <r>   -30.4495     0.0000     2.0000 </r>
       <r>   -30.4156     0.0000     2.0000 </r>
       <r>   -30.3817     0.0000     2.0000 </r>
       <r>   -30.3478     0.0000     2.0000 </r>
       <r>   -30.3139     0.0000     2.0000 </r>
       <r>   -30.2801     0.0000     2.0000 </r>
       <r>   -30.2462     0.0000     2.0000 </r>
       <r>   -30.2123     0.0000     2.0000 </r>
       <r>   -30.1784     0.0000     2.0000 </r>
       <r>   -30.1445     0.0000     2.0000 </r>
       <r>   -30.1107     0.0000     2.0000 </r>
       <r>   -30.0768     0.0000     2.0000 </r>
       <r>   -30.0429     0.0000     2.0000 </r>
       <r>   -30.0090     0.0000     2.0000 </r>
       <r>   -29.9751     0.0000     2.0000 </r>
       <r>   -29.9412     0.0000     2.0000 </r>
       <r>   -29.9074     0.0000     2.0000 </r>
       <r>   -29.8735     0.0000     2.0000 </r>
       <r>   -29.8396     0.0000     2.0000 </r>
       <r>   -29.8057     0.0000     2.0000 </r>
       <r>   -29.7718     0.0000     2.0000 </r>
       <r>   -29.7380     0.0000     2.0000 </r>
       <r>   -29.7041     0.0000     2.0000 </r>
       <r>   -29.6702     0.0000     2.0000 </r>
       <r>   -29.6363     0.0000     2.0000 </r>
       <r>   -29.6024     0.0000     2.0000 </r>
       <r>   -29.5685     0.0000     2.0000 </r>
       <r>   -29.5347     0.0000     2.0000 </r>
       <r>   -29.5008     0.0000     2.0000 </r>
       <r>   -29.4669     0.0000     2.0000 </r>
       <r>   -29.4330     0.0000     2.0000 </r>
       <r>   -29.3991     0.0000     2.0000 </r>
       <r>   -29.3653     0.0000     2.0000 </r>
       <r>   -29.3314     0.0000     2.0000 </r>
       <r>   -29.2975     0.0000     2.0000 </r>
       <r>   -29.2636     0.0000     2.0000 </r>
       <r>   -29.2297     0.0000     2.0000 </r>
       <r>   -29.1959     0.0000     2.0000 </r>
       <r>   -29.1620     0.0000     2.0000 </r>
       <r>   -29.1281     0.0000     2.0000 </r>
       <r>   -29.0942     0.0000     2.0000 </r>
[...]
        <r>  0.0946  0.0006  0.0030  0.0006  0.0000  0.0000  0.0000  0.0000  0.0000 </r>
        <r>  0.0946  0.0006  0.0030  0.0006  0.0000  0.0000  0.0000  0.0000  0.0000 </r>
       </set>
      </set>
      <set comment="kpoint 56">
       <set comment="band 1">
        <r>  0.9848  0.0000  0.0000  0.0000  0.0000  0.0000  0.0000  0.0000  0.0000 </r>
        <r>  0.0003  0.0000  0.0000  0.0000  0.0000  0.0000  0.0000  0.0000  0.0000 </r>
        <r>  0.0003  0.0000  0.0000  0.0000  0.0000  0.0000  0.0000  0.0000  0.0000 </r>
       </set>
       <set comment="band 2">
        <r>  0.0004  0.1446  0.6916  0.1446  0.0000  0.0000  0.0000  0.0000  0.0000 </r>
        <r>  0.0006  0.0000  0.0000  0.0000  0.0000  0.0000  0.0000  0.0000  0.0000 </r>
        <r>  0.0006  0.0000  0.0000  0.0000  0.0000  0.0000  0.0000  0.0000  0.0000 </r>
       </set>
       <set comment="band 3">
        <r>  0.0000  0.4939  0.0000  0.4939  0.0000  0.0000  0.0000  0.0000  0.0000 </r>
        <r>  0.0000  0.0001  0.0000  0.0001  0.0000  0.0000  0.0000  0.0000  0.0000 </r>
        <r>  0.0000  0.0001  0.0000  0.0001  0.0000  0.0000  0.0000  0.0000  0.0000 </r>
       </set>
       <set comment="band 4">
        <r>  0.0000  0.3485  0.2912  0.3485  0.0000  0.0000  0.0000  0.0000  0.0000 </r>
        <r>  0.0000  0.0000  0.0000  0.0000  0.0000  0.0000  0.0000  0.0000  0.0000 </r>
        <r>  0.0000  0.0000  0.0000  0.0000  0.0000  0.0000  0.0000  0.0000  0.0000 </r>
       </set>
       <set comment="band 5">
        <r>  0.3000  0.0009  0.0090  0.0009  0.0000  0.0003  0.0001  0.0003  0.0000 </r>
        <r>  0.1003  0.0000  0.0001  0.0000  0.0000  0.0000  0.0000  0.0000  0.0000 </r>
        <r>  0.1003  0.0000  0.0001  0.0000  0.0000  0.0000  0.0000  0.0000  0.0000 </r>
       </set>
       <set comment="band 6">
        <r>  0.0000  0.0007  0.0001  0.0007  0.2331  0.0229  0.0000  0.0229  0.0000 </r>
        <r>  0.1499  0.0002  0.0022  0.0002  0.0000  0.0000  0.0000  0.0000  0.0000 </r>
        <r>  0.1499  0.0002  0.0022  0.0002  0.0000  0.0000  0.0000  0.0000  0.0000 </r>
       </set>
       <set comment="band 7">
        <r>  0.0000  0.0008  0.0005  0.0008  0.1273  0.2816  0.0052  0.2816  0.0000 </r>
        <r>  0.0000  0.0044  0.0020  0.0044  0.0000  0.0000  0.0000  0.0000  0.0000 </r>
        <r>  0.0000  0.0044  0.0020  0.0044  0.0000  0.0000  0.0000  0.0000  0.0000 </r>
       </set>
       <set comment="band 8">
        <r>  0.0000  0.0014  0.0000  0.0014  0.0000  0.3437  0.0000  0.3437  0.0066 </r>
        <r>  0.0000  0.0054  0.0000  0.0054  0.0000  0.0000  0.0000  0.0000  0.0000 </r>
        <r>  0.0000  0.0054  0.0000  0.0054  0.0000  0.0000  0.0000  0.0000  0.0000 </r>
       </set>
       <set comment="band 9">
        <r>  0.0000  0.0000  0.0002  0.0000  0.0042  0.0016  0.7637  0.0016  0.0000 </r>
        <r>  0.0012  0.0000  0.0010  0.0000  0.0000  0.0000  0.0000  0.0000  0.0000 </r>
        <r>  0.0012  0.0000  0.0010  0.0000  0.0000  0.0000  0.0000  0.0000  0.0000 </r>
       </set>
       <set comment="band 10">
        <r>  0.0000  0.0004  0.0001  0.0004  0.3414  0.0398  0.0026  0.0398  0.0000 </r>
        <r>  0.1017  0.0009  0.0066  0.0009  0.0000  0.0000  0.0000  0.0000  0.0000 </r>
        <r>  0.1017  0.0009  0.0066  0.0009  0.0000  0.0000  0.0000  0.0000  0.0000 </r>
       </set>
       <set comment="band 11">
        <r>  0.0000  0.0000  0.0000  0.0000  0.0000  0.0038  0.0000  0.0038  0.8208 </r>
        <r>  0.0000  0.0001  0.0000  0.0001  0.0000  0.0000  0.0000  0.0000  0.0000 </r>
        <r>  0.0000  0.0001  0.0000  0.0001  0.0000  0.0000  0.0000  0.0000  0.0000 </r>
       </set>
       <set comment="band 12">
        <r>  0.0218  0.0006  0.0014  0.0006  0.0006  0.0025  0.0275  0.0025  0.0000 </r>
        <r>  0.0982  0.0006  0.0032  0.0006  0.0000  0.0000  0.0000  0.0000  0.0000 </r>
        <r>  0.0982  0.0006  0.0032  0.0006  0.0000  0.0000  0.0000  0.0000  0.0000 </r>
       </set>
      </set>
      <set comment="kpoint 57">
       <set comment="band 1">
        <r>  0.9846  0.0000  0.0000  0.0000  0.0000  0.0000  0.0000  0.0000  0.0000 </r>
        <r>  0.0003  0.0000  0.0000  0.0000  0.0000  0.0000  0.0000  0.0000  0.0000 </r>
        <r>  0.0003  0.0000  0.0000  0.0000  0.0000  0.0000  0.0000  0.0000  0.0000 </r>
       </set>
       <set comment="band 2">
        <r>  0.0002  0.1449  0.6944  0.1449  0.0000  0.0000  0.0000  0.0000  0.0000 </r>
        <r>  0.0003  0.0000  0.0001  0.0000  0.0000  0.0000  0.0000  0.0000  0.0000 </r>
        <r>  0.0003  0.0000  0.0001  0.0000  0.0000  0.0000  0.0000  0.0000  0.0000 </r>
       </set>
       <set comment="band 3">
        <r>  0.0000  0.4942  0.0000  0.4942  0.0000  0.0000  0.0000  0.0000  0.0000 </r>
        <r>  0.0000  0.0001  0.0000  0.0001  0.0000  0.0000  0.0000  0.0000  0.0000 </r>
        <r>  0.0000  0.0001  0.0000  0.0001  0.0000  0.0000  0.0000  0.0000  0.0000 </r>
       </set>
       <set comment="band 4">
        <r>  0.0000  0.3488  0.2910  0.3488  0.0000  0.0000  0.0000  0.0000  0.0000 </r>
        <r>  0.0000  0.0000  0.0000  0.0000  0.0000  0.0000  0.0000  0.0000  0.0000 </r>
        <r>  0.0000  0.0000  0.0000  0.0000  0.0000  0.0000  0.0000  0.0000  0.0000 </r>
       </set>
       <set comment="band 5">
        <r>  0.3054  0.0006  0.0052  0.0006  0.0000  0.0001  0.0000  0.0001  0.0000 </r>
        <r>  0.0996  0.0000  0.0001  0.0000  0.0000  0.0000  0.0000  0.0000  0.0000 </r>
        <r>  0.0996  0.0000  0.0001  0.0000  0.0000  0.0000  0.0000  0.0000  0.0000 </r>
       </set>
       <set comment="band 6">
        <r>  0.0000  0.0003  0.0000  0.0003  0.2160  0.0222  0.0000  0.0222  0.0000 </r>
        <r>  0.1567  0.0002  0.0022  0.0002  0.0000  0.0000  0.0000  0.0000  0.0000 </r>
        <r>  0.1567  0.0002  0.0022  0.0002  0.0000  0.0000  0.0000  0.0000  0.0000 </r>
       </set>
       <set comment="band 7">
        <r>  0.0000  0.0004  0.0003  0.0004  0.1287  0.2836  0.0012  0.2836  0.0000 </r>
        <r>  0.0000  0.0044  0.0020  0.0044  0.0000  0.0000  0.0000  0.0000  0.0000 </r>
        <r>  0.0000  0.0044  0.0020  0.0044  0.0000  0.0000  0.0000  0.0000  0.0000 </r>
       </set>
       <set comment="band 8">
        <r>  0.0000  0.0008  0.0000  0.0008  0.0000  0.3468  0.0000  0.3468  0.0021 </r>
        <r>  0.0000  0.0055  0.0000  0.0055  0.0000  0.0000  0.0000  0.0000  0.0000 </r>
        <r>  0.0000  0.0055  0.0000  0.0055  0.0000  0.0000  0.0000  0.0000  0.0000 </r>
       </set>
       <set comment="band 9">
        <r>  0.0000  0.0003  0.0000  0.0003  0.3576  0.0408  0.0000  0.0408  0.0000 </r>
        <r>  0.0947  0.0008  0.0066  0.0008  0.0000  0.0000  0.0000  0.0000  0.0000 </r>
        <r>  0.0947  0.0008  0.0066  0.0008  0.0000  0.0000  0.0000  0.0000  0.0000 </r>
       </set>
       <set comment="band 10">
        <r>  0.0000  0.0000  0.0001  0.0000  0.0001  0.0007  0.7953  0.0007  0.0000 </r>
        <r>  0.0003  0.0000  0.0006  0.0000  0.0000  0.0000  0.0000  0.0000  0.0000 </r>
        <r>  0.0003  0.0000  0.0006  0.0000  0.0000  0.0000  0.0000  0.0000  0.0000 </r>
       </set>
       <set comment="band 11">
        <r>  0.0000  0.0000  0.0000  0.0000  0.0000  0.0012  0.0000  0.0012  0.8268 </r>
        <r>  0.0000  0.0001  0.0000  0.0001  0.0000  0.0000  0.0000  0.0000  0.0000 </r>
        <r>  0.0000  0.0001  0.0000  0.0001  0.0000  0.0000  0.0000  0.0000  0.0000 </r>
       </set>
       <set comment="band 12">
        <r>  0.0228  0.0005  0.0019  0.0005  0.0002  0.0012  0.0137  0.0012  0.0000 </r>
        <r>  0.1037  0.0005  0.0033  0.0005  0.0000  0.0000  0.0000  0.0000  0.0000 </r>
        <r>  0.1037  0.0005  0.0033  0.0005  0.0000  0.0000  0.0000  0.0000  0.0000 </r>
       </set>
      </set>
      <set comment="kpoint 58">
       <set comment="band 1">
        <r>  0.9844  0.0000  0.0000  0.0000  0.0000  0.0000  0.0000  0.0000  0.0000 </r>
        <r>  0.0003  0.0000  0.0000  0.0000  0.0000  0.0000  0.0000  0.0000  0.0000 </r>
        <r>  0.0003  0.0000  0.0000  0.0000  0.0000  0.0000  0.0000  0.0000  0.0000 </r>
       </set>
       <set comment="band 2">
        <r>  0.0001  0.1452  0.6966  0.1452  0.0000  0.0000  0.0000  0.0000  0.0000 </r>
        <r>  0.0002  0.0000  0.0001  0.0000  0.0000  0.0000  0.0000  0.0000  0.0000 </r>
        <r>  0.0002  0.0000  0.0001  0.0000  0.0000  0.0000  0.0000  0.0000  0.0000 </r>
       </set>
       <set comment="band 3">
        <r>  0.0000  0.4944  0.0000  0.4945  0.0000  0.0000  0.0000  0.0000  0.0000 </r>
        <r>  0.0000  0.0000  0.0000  0.0000  0.0000  0.0000  0.0000  0.0000  0.0000 </r>
        <r>  0.0000  0.0000  0.0000  0.0000  0.0000  0.0000  0.0000  0.0000  0.0000 </r>
       </set>
       <set comment="band 4">
        <r>  0.0000  0.3491  0.2910  0.3490  0.0000  0.0000  0.0000  0.0000  0.0000 </r>
        <r>  0.0000  0.0000  0.0000  0.0000  0.0000  0.0000  0.0000  0.0000  0.0000 </r>
        <r>  0.0000  0.0000  0.0000  0.0000  0.0000  0.0000  0.0000  0.0000  0.0000 </r>
       </set>
       <set comment="band 5">
        <r>  0.3092  0.0003  0.0024  0.0003  0.0000  0.0000  0.0000  0.0000  0.0000 </r>
        <r>  0.0992  0.0000  0.0000  0.0000  0.0000  0.0000  0.0000  0.0000  0.0000 </r>
        <r>  0.0992  0.0000  0.0000  0.0000  0.0000  0.0000  0.0000  0.0000  0.0000 </r>
       </set>
       <set comment="band 6">
        <r>  0.0000  0.0001  0.0000  0.0001  0.1847  0.0197  0.0000  0.0197  0.0000 </r>
        <r>  0.1699  0.0002  0.0022  0.0002  0.0000  0.0000  0.0000  0.0000  0.0000 </r>
        <r>  0.1699  0.0002  0.0022  0.0002  0.0000  0.0000  0.0000  0.0000  0.0000 </r>
       </set>
       <set comment="band 7">
        <r>  0.0000  0.0002  0.0001  0.0002  0.1293  0.2841  0.0002  0.2841  0.0000 </r>
        <r>  0.0000  0.0045  0.0020  0.0045  0.0000  0.0000  0.0000  0.0000  0.0000 </r>
        <r>  0.0000  0.0045  0.0020  0.0045  0.0000  0.0000  0.0000  0.0000  0.0000 </r>
       </set>
       <set comment="band 8">
        <r>  0.0000  0.0004  0.0000  0.0004  0.0000  0.3483  0.0000  0.3483  0.0004 </r>
        <r>  0.0000  0.0055  0.0000  0.0055  0.0000  0.0000  0.0000  0.0000  0.0000 </r>
        <r>  0.0000  0.0055  0.0000  0.0055  0.0000  0.0000  0.0000  0.0000  0.0000 </r>
       </set>
       <set comment="band 9">
        <r>  0.0000  0.0002  0.0000  0.0002  0.3860  0.0443  0.0000  0.0443  0.0000 </r>
        <r>  0.0812  0.0008  0.0068  0.0008  0.0000  0.0000  0.0000  0.0000  0.0000 </r>
        <r>  0.0812  0.0008  0.0068  0.0008  0.0000  0.0000  0.0000  0.0000  0.0000 </r>
       </set>
       <set comment="band 10">
        <r>  0.0000  0.0000  0.0000  0.0000  0.0000  0.0001  0.8155  0.0001  0.0000 </r>
        <r>  0.0001  0.0000  0.0003  0.0000  0.0000  0.0000  0.0000  0.0000  0.0000 </r>
        <r>  0.0001  0.0000  0.0003  0.0000  0.0000  0.0000  0.0000  0.0000  0.0000 </r>
       </set>
       <set comment="band 11">
        <r>  0.0000  0.0000  0.0000  0.0000  0.0000  0.0002  0.0000  0.0002  0.8299 </r>
        <r>  0.0000  0.0000  0.0000  0.0000  0.0000  0.0000  0.0000  0.0000  0.0000 </r>
        <r>  0.0000  0.0000  0.0000  0.0000  0.0000  0.0000  0.0000  0.0000  0.0000 </r>
       </set>
       <set comment="band 12">
        <r>  0.0266  0.0004  0.0022  0.0004  0.0001  0.0004  0.0047  0.0004  0.0000 </r>
        <r>  0.1137  0.0004  0.0030  0.0004  0.0000  0.0000  0.0000  0.0000  0.0000 </r>
        <r>  0.1137  0.0004  0.0030  0.0004  0.0000  0.0000  0.0000  0.0000  0.0000 </r>
       </set>
      </set>
      <set comment="kpoint 59">
       <set comment="band 1">
        <r>  0.9843  0.0000  0.0000  0.0000  0.0000  0.0000  0.0000  0.0000  0.0000 </r>
        <r>  0.0003  0.0000  0.0000  0.0000  0.0000  0.0000  0.0000  0.0000  0.0000 </r>
        <r>  0.0003  0.0000  0.0000  0.0000  0.0000  0.0000  0.0000  0.0000  0.0000 </r>
       </set>
       <set comment="band 2">
        <r>  0.0000  0.1453  0.6980  0.1453  0.0000  0.0000  0.0000  0.0000  0.0000 </r>
        <r>  0.0000  0.0000  0.0001  0.0000  0.0000  0.0000  0.0000  0.0000  0.0000 </r>
        <r>  0.0000  0.0000  0.0001  0.0000  0.0000  0.0000  0.0000  0.0000  0.0000 </r>
       </set>
       <set comment="band 3">
        <r>  0.0000  0.4945  0.0000  0.4947  0.0000  0.0000  0.0000  0.0000  0.0000 </r>
        <r>  0.0000  0.0000  0.0000  0.0000  0.0000  0.0000  0.0000  0.0000  0.0000 </r>
        <r>  0.0000  0.0000  0.0000  0.0000  0.0000  0.0000  0.0000  0.0000  0.0000 </r>
       </set>
       <set comment="band 4">
        <r>  0.0000  0.3493  0.2908  0.3491  0.0000  0.0000  0.0000  0.0000  0.0000 </r>
        <r>  0.0000  0.0000  0.0000  0.0000  0.0000  0.0000  0.0000  0.0000  0.0000 </r>
        <r>  0.0000  0.0000  0.0000  0.0000  0.0000  0.0000  0.0000  0.0000  0.0000 </r>
       </set>
       <set comment="band 5">
        <r>  0.3115  0.0001  0.0006  0.0001  0.0000  0.0000  0.0000  0.0000  0.0000 </r>
        <r>  0.0989  0.0000  0.0000  0.0000  0.0000  0.0000  0.0000  0.0000  0.0000 </r>
        <r>  0.0989  0.0000  0.0000  0.0000  0.0000  0.0000  0.0000  0.0000  0.0000 </r>
       </set>
       <set comment="band 6">
        <r>  0.0000  0.0000  0.0000  0.0000  0.1138  0.0125  0.0000  0.0125  0.0000 </r>
        <r>  0.2008  0.0002  0.0015  0.0002  0.0000  0.0000  0.0000  0.0000  0.0000 </r>
        <r>  0.2008  0.0002  0.0015  0.0002  0.0000  0.0000  0.0000  0.0000  0.0000 </r>
       </set>
       <set comment="band 7">
        <r>  0.0000  0.0000  0.0000  0.0000  0.1295  0.2843  0.0000  0.2842  0.0000 </r>
        <r>  0.0000  0.0045  0.0020  0.0045  0.0000  0.0000  0.0000  0.0000  0.0000 </r>
        <r>  0.0000  0.0045  0.0020  0.0045  0.0000  0.0000  0.0000  0.0000  0.0000 </r>
       </set>
       <set comment="band 8">
        <r>  0.0000  0.0001  0.0000  0.0001  0.0000  0.3489  0.0000  0.3489  0.0000 </r>
        <r>  0.0000  0.0055  0.0000  0.0055  0.0000  0.0000  0.0000  0.0000  0.0000 </r>
        <r>  0.0000  0.0055  0.0000  0.0055  0.0000  0.0000  0.0000  0.0000  0.0000 </r>
       </set>
       <set comment="band 9">
        <r>  0.0000  0.0001  0.0000  0.0001  0.4553  0.0521  0.0000  0.0521  0.0000 </r>
        <r>  0.0501  0.0009  0.0075  0.0009  0.0000  0.0000  0.0000  0.0000  0.0000 </r>
        <r>  0.0501  0.0009  0.0075  0.0009  0.0000  0.0000  0.0000  0.0000  0.0000 </r>
       </set>
       <set comment="band 10">
        <r>  0.0000  0.0000  0.0000  0.0000  0.0000  0.0000  0.8275  0.0000  0.0000 </r>
        <r>  0.0000  0.0000  0.0001  0.0000  0.0000  0.0000  0.0000  0.0000  0.0000 </r>
        <r>  0.0000  0.0000  0.0001  0.0000  0.0000  0.0000  0.0000  0.0000  0.0000 </r>
       </set>
       <set comment="band 11">
        <r>  0.0000  0.0000  0.0000  0.0000  0.0000  0.0000  0.0000  0.0000  0.8312 </r>
        <r>  0.0000  0.0000  0.0000  0.0000  0.0000  0.0000  0.0000  0.0000  0.0000 </r>
        <r>  0.0000  0.0000  0.0000  0.0000  0.0000  0.0000  0.0000  0.0000  0.0000 </r>
       </set>
       <set comment="band 12">
        <r>  0.0352  0.0002  0.0016  0.0002  0.0000  0.0001  0.0006  0.0001  0.0000 </r>
        <r>  0.1343  0.0002  0.0018  0.0002  0.0000  0.0000  0.0000  0.0000  0.0000 </r>
        <r>  0.1343  0.0002  0.0018  0.0002  0.0000  0.0000  0.0000  0.0000  0.0000 </r>
       </set>
      </set>
      <set comment="kpoint 60">
       <set comment="band 1">
        <r>  0.9842  0.0000  0.0000  0.0000  0.0000  0.0000  0.0000  0.0000  0.0000 </r>
        <r>  0.0003  0.0000  0.0000  0.0000  0.0000  0.0000  0.0000  0.0000  0.0000 </r>
        <r>  0.0003  0.0000  0.0000  0.0000  0.0000  0.0000  0.0000  0.0000  0.0000 </r>
       </set>
       <set comment="band 2">
        <r>  0.0000  0.4900  0.0000  0.4992  0.0000  0.0000  0.0000  0.0000  0.0000 </r>
        <r>  0.0000  0.0000  0.0000  0.0000  0.0000  0.0000  0.0000  0.0000  0.0000 </r>
        <r>  0.0000  0.0000  0.0000  0.0000  0.0000  0.0000  0.0000  0.0000  0.0000 </r>
       </set>
       <set comment="band 3">
        <r>  0.0000  0.1698  0.6587  0.1607  0.0000  0.0000  0.0000  0.0000  0.0000 </r>
        <r>  0.0000  0.0000  0.0001  0.0000  0.0000  0.0000  0.0000  0.0000  0.0000 </r>
        <r>  0.0000  0.0000  0.0001  0.0000  0.0000  0.0000  0.0000  0.0000  0.0000 </r>
       </set>
       <set comment="band 4">
        <r>  0.0000  0.3294  0.3305  0.3293  0.0000  0.0000  0.0000  0.0000  0.0000 </r>
        <r>  0.0000  0.0000  0.0000  0.0000  0.0000  0.0000  0.0000  0.0000  0.0000 </r>
        <r>  0.0000  0.0000  0.0000  0.0000  0.0000  0.0000  0.0000  0.0000  0.0000 </r>
       </set>
       <set comment="band 5">
        <r>  0.3122  0.0000  0.0000  0.0000  0.0000  0.0000  0.0000  0.0000  0.0000 </r>
        <r>  0.0988  0.0000  0.0000  0.0000  0.0000  0.0000  0.0000  0.0000  0.0000 </r>
        <r>  0.0988  0.0000  0.0000  0.0000  0.0000  0.0000  0.0000  0.0000  0.0000 </r>
       </set>
       <set comment="band 6">
        <r>  0.0000  0.0000  0.0000  0.0000  0.0000  0.0000  0.0000  0.0000  0.0000 </r>
        <r>  0.2508  0.0000  0.0000  0.0000  0.0000  0.0000  0.0000  0.0000  0.0000 </r>
        <r>  0.2508  0.0000  0.0000  0.0000  0.0000  0.0000  0.0000  0.0000  0.0000 </r>
       </set>
       <set comment="band 7">
        <r>  0.0000  0.0000  0.0000  0.0000  0.4664  0.1158  0.0000  0.1158  0.0000 </r>
        <r>  0.0000  0.0018  0.0073  0.0018  0.0000  0.0000  0.0000  0.0000  0.0000 </r>
        <r>  0.0000  0.0018  0.0073  0.0018  0.0000  0.0000  0.0000  0.0000  0.0000 </r>
       </set>
       <set comment="band 8">
        <r>  0.0000  0.0000  0.0000  0.0000  0.0000  0.3490  0.0000  0.3490  0.0000 </r>
        <r>  0.0000  0.0055  0.0000  0.0055  0.0000  0.0000  0.0000  0.0000  0.0000 </r>
        <r>  0.0000  0.0055  0.0000  0.0055  0.0000  0.0000  0.0000  0.0000  0.0000 </r>
       </set>
       <set comment="band 9">
        <r>  0.0000  0.0000  0.0000  0.0000  0.2316  0.2332  0.0000  0.2332  0.0000 </r>
        <r>  0.0000  0.0037  0.0036  0.0037  0.0000  0.0000  0.0000  0.0000  0.0000 </r>
        <r>  0.0000  0.0037  0.0036  0.0037  0.0000  0.0000  0.0000  0.0000  0.0000 </r>
       </set>
       <set comment="band 10">
        <r>  0.0000  0.0000  0.0000  0.0000  0.0000  0.0000  0.8315  0.0000  0.0000 </r>
        <r>  0.0000  0.0000  0.0000  0.0000  0.0000  0.0000  0.0000  0.0000  0.0000 </r>
        <r>  0.0000  0.0000  0.0000  0.0000  0.0000  0.0000  0.0000  0.0000  0.0000 </r>
       </set>
       <set comment="band 11">
        <r>  0.0000  0.0000  0.0000  0.0000  0.0000  0.0000  0.0000  0.0000  0.8315 </r>
        <r>  0.0000  0.0000  0.0000  0.0000  0.0000  0.0000  0.0000  0.0000  0.0000 </r>
        <r>  0.0000  0.0000  0.0000  0.0000  0.0000  0.0000  0.0000  0.0000  0.0000 </r>
       </set>
       <set comment="band 12">
        <r>  0.0452  0.0000  0.0000  0.0000  0.0000  0.0000  0.0000  0.0000  0.0000 </r>
        <r>  0.1589  0.0000  0.0000  0.0000  0.0000  0.0000  0.0000  0.0000  0.0000 </r>
        <r>  0.1589  0.0000  0.0000  0.0000  0.0000  0.0000  0.0000  0.0000  0.0000 </r>
       </set>
      </set>
     </set>
    </set>
   </array>
  </projected>
 </calculation>
 <structure name="finalpos" >
  <crystal>
   <varray name="basis" >
    <v>       0.00000000       2.40378399       2.40378399 </v>
    <v>       2.40378399       0.00000000       2.40378399 </v>
    <v>       2.40378399       2.40378399       0.00000000 </v>
   </varray>
   <i name="volume">     27.77898087 </i>
   <varray name="rec_basis" >
    <v>      -0.20800538       0.20800538       0.20800538 </v>
    <v>       0.20800538      -0.20800538       0.20800538 </v>
    <v>       0.20800538       0.20800538      -0.20800538 </v>
   </varray>
  </crystal>
  <varray name="positions" >
   <v>       0.00000000       0.00000000       0.00000000 </v>
   <v>       0.75000000       0.75000000       0.75000000 </v>
   <v>       0.25000000       0.25000000       0.25000000 </v>
  </varray>
 </structure>
</modeling>
