ITEM: TIMESTEP
261
ITEM: NUMBER OF ATOMS
192
ITEM: BOX BOUNDS pp pp pp
0.0000000000000000e+00 7.1176886540000002e+00
0.0000000000000000e+00 2.5858194780409800e+01
0.0000000000000000e+00 4.8301037599330101e+01
ITEM: ATOMS id type xs ys zs
1 1 0 0.121395 0
7 1 0.25 0.0650943 0.0443287
49 1 0.5 0.121395 0
55 1 0.75 0.0650943 0.0443287
2 1 3.36001e-17 0.315094 0.0443287
26 1 0 0.179996 0.0544636
28 1 0.25 0.236825 0.00919034
50 1 0.5 0.315094 0.0443287
74 1 0.5 0.179996 0.0544636
76 1 0.75 0.236825 0.00919034
3 1 0.25 0.371395 0
25 1 0 0.486825 0.00919034
29 1 0.25 0.429996 0.0544636
51 1 0.75 0.371395 0
73 1 0.5 0.486825 0.00919034
77 1 0.75 0.429996 0.0544636
97 1 0 0.621395 0
103 1 0.25 0.565094 0.0443287
145 1 0.5 0.621395 0
151 1 0.75 0.565094 0.0443287
98 1 3.56679e-17 0.815094 0.0443287
122 1 4.00817e-17 0.679996 0.0544636
124 1 0.25 0.736825 0.00919034
146 1 0.5 0.815094 0.0443287
170 1 0.5 0.679996 0.0544636
172 1 0.75 0.736825 0.00919034
99 1 0.25 0.871395 0
121 1 0 0.986825 0.00919034
125 1 0.25 0.929996 0.0544636
147 1 0.75 0.871395 0
169 1 0.5 0.986825 0.00919034
173 1 0.75 0.929996 0.0544636
4 1 0 0.00715404 0.0901202
33 1 0.25 0.122177 0.101207
52 1 0.5 0.00715404 0.0901202
81 1 0.75 0.122177 0.101207
30 1 3.41948e-17 0.0646243 0.147514
78 1 0.5 0.0646243 0.147514
5 1 1 0.199689 0.136462
8 1 0.25 0.257154 0.0901202
53 1 0.5 0.199689 0.136462
56 1 0.75 0.257154 0.0901202
34 1 0.25 0.314624 0.147514
82 1 0.75 0.314624 0.147514
9 1 0.25 0.449689 0.136462
27 1 0 0.372177 0.101207
57 1 0.75 0.449689 0.136462
75 1 0.5 0.372177 0.101207
100 1 1.04306e-17 0.507154 0.0901202
129 1 0.25 0.622177 0.101207
148 1 0.5 0.507154 0.0901202
177 1 0.75 0.622177 0.101207
126 1 0 0.564624 0.147514
174 1 0.5 0.564624 0.147514
101 1 0 0.699689 0.136462
104 1 0.25 0.757154 0.0901202
149 1 0.5 0.699689 0.136462
152 1 0.75 0.757154 0.0901202
130 1 0.25 0.814624 0.147514
178 1 0.75 0.814624 0.147514
105 1 0.25 0.949689 0.136462
123 1 1.74769e-17 0.872177 0.101207
153 1 0.75 0.949689 0.136462
171 1 0.5 0.872177 0.101207
13 1 0.25 0.142091 0.183136
37 1 0.25 0.00705467 0.193382
61 1 0.75 0.142091 0.183136
85 1 0.75 0.00705467 0.193382
10 1 0 0.0845159 0.228678
58 1 0.5 0.0845159 0.228678
31 1 4.88341e-17 0.257055 0.193382
79 1 0.5 0.257055 0.193382
38 1 0.25 0.199479 0.237561
86 1 0.75 0.199479 0.237561
6 1 0 0.392091 0.183136
54 1 0.5 0.392091 0.183136
14 1 0.25 0.334516 0.228678
32 1 0 0.449479 0.237561
62 1 0.75 0.334516 0.228678
80 1 0.5 0.449479 0.237561
109 1 0.25 0.642091 0.183136
133 1 0.25 0.507055 0.193382
157 1 0.75 0.642091 0.183136
181 1 0.75 0.507055 0.193382
106 1 0 0.584516 0.228678
154 1 0.5 0.584516 0.228678
127 1 4.16389e-17 0.757055 0.193382
175 1 0.5 0.757055 0.193382
134 1 0.25 0.699479 0.237561
182 1 0.75 0.699479 0.237561
102 1 7.3366e-17 0.892091 0.183136
150 1 0.5 0.892091 0.183136
110 1 0.25 0.834516 0.228678
128 1 1 0.949479 0.237561
158 1 0.75 0.834516 0.228678
176 1 0.5 0.949479 0.237561
131 1 0 0.0419037 0.387012
179 1 0.5 0.0419037 0.387012
107 1 0 0.176941 0.378129
155 1 0.5 0.176941 0.378129
135 1 0.25 0.291904 0.387012
183 1 0.75 0.291904 0.387012
17 1 0.25 0.426941 0.378129
65 1 0.75 0.426941 0.378129
35 1 1.82552e-17 0.541904 0.387012
83 1 0.5 0.541904 0.387012
11 1 6.52908e-18 0.676941 0.378129
59 1 0.5 0.676941 0.378129
39 1 0.25 0.791904 0.387012
87 1 0.75 0.791904 0.387012
113 1 0.25 0.926941 0.378129
161 1 0.75 0.926941 0.378129
114 1 0.25 0.119365 0.422308
162 1 0.75 0.119365 0.422308
111 1 2.62312e-18 0.0617953 0.468177
159 1 0.5 0.0617953 0.468177
140 1 0.25 0.176731 0.479228
188 1 0.75 0.176731 0.479228
132 1 9.88134e-18 0.234329 0.432554
180 1 0.5 0.234329 0.432554
115 1 0.25 0.311795 0.468177
163 1 0.75 0.311795 0.468177
108 1 0 0.369365 0.422308
156 1 0.5 0.369365 0.422308
40 1 1 0.426731 0.479228
88 1 0.5 0.426731 0.479228
43 1 0.25 0.484329 0.432554
91 1 0.75 0.484329 0.432554
15 1 0 0.561795 0.468177
63 1 0.5 0.561795 0.468177
18 1 0.25 0.619365 0.422308
66 1 0.75 0.619365 0.422308
44 1 0.25 0.676731 0.479228
92 1 0.75 0.676731 0.479228
36 1 0 0.734329 0.432554
84 1 0.5 0.734329 0.432554
19 1 0.25 0.811795 0.468177
67 1 0.75 0.811795 0.468177
12 1 4.76406e-18 0.869365 0.422308
60 1 0.5 0.869365 0.422308
136 1 2.57553e-17 0.926731 0.479228
184 1 0.5 0.926731 0.479228
139 1 0.25 0.984329 0.432554
187 1 0.75 0.984329 0.432554
137 1 2.8427e-17 0.119266 0.52557
185 1 0.5 0.119266 0.52557
143 1 0.25 0.0613256 0.571362
191 1 0.75 0.0613256 0.571362
120 1 0.25 0.00424239 0.514484
168 1 0.75 0.00424239 0.514484
118 1 0.25 0.196424 0.561227
166 1 0.75 0.196424 0.561227
112 1 0 0.254242 0.514484
160 1 0.5 0.254242 0.514484
138 1 5.31328e-18 0.311326 0.571362
186 1 0.5 0.311326 0.571362
141 1 0.25 0.369266 0.52557
189 1 0.75 0.369266 0.52557
20 1 3.43753e-17 0.446424 0.561227
68 1 0.5 0.446424 0.561227
24 1 0.25 0.504242 0.514484
72 1 0.75 0.504242 0.514484
47 1 0.25 0.561326 0.571362
95 1 0.75 0.561326 0.571362
41 1 0 0.619266 0.52557
89 1 0.5 0.619266 0.52557
22 1 0.25 0.696424 0.561227
70 1 0.75 0.696424 0.561227
16 1 1.70474e-17 0.754242 0.514484
64 1 0.5 0.754242 0.514484
42 1 2.41617e-17 0.811326 0.571362
90 1 0.5 0.811326 0.571362
45 1 0.25 0.869266 0.52557
93 1 0.75 0.869266 0.52557
116 1 5.55776e-17 0.946424 0.561227
164 1 0.5 0.946424 0.561227
117 1 0 0.139595 0.6065
165 1 0.5 0.139595 0.6065
142 1 0 0.005025 0.615691
190 1 0.5 0.005025 0.615691
144 1 0.25 0.255025 0.615691
192 1 0.75 0.255025 0.615691
119 1 0.25 0.389595 0.6065
167 1 0.75 0.389595 0.6065
46 1 0 0.505025 0.615691
94 1 0.5 0.505025 0.615691
21 1 0 0.639595 0.6065
69 1 0.5 0.639595 0.6065
48 1 0.25 0.755025 0.615691
96 1 0.75 0.755025 0.615691
23 1 0.25 0.889595 0.6065
71 1 0.75 0.889595 0.6065
