ITEM: TIMESTEP
38
ITEM: NUMBER OF ATOMS
192
ITEM: BOX BOUNDS pp pp pp
0.0000000000000000e+00 7.1176886540000002e+00
0.0000000000000000e+00 2.5858194780409800e+01
0.0000000000000000e+00 4.8301037599330101e+01
ITEM: ATOMS id type xs ys zs
1 1 0 0.121395 0
7 1 0.25 0.0650943 0.053483
49 1 0.5 0.121395 0
55 1 0.75 0.0650943 0.053483
2 1 3.36001e-17 0.315094 0.053483
26 1 0 0.179996 0.0628491
28 1 0.25 0.236825 0.00919034
50 1 0.5 0.315094 0.053483
74 1 0.5 0.179996 0.0628491
76 1 0.75 0.236825 0.00919034
3 1 0.25 0.371395 0
25 1 0 0.486825 0.00919034
29 1 0.25 0.429996 0.0628491
51 1 0.75 0.371395 0
73 1 0.5 0.486825 0.00919034
77 1 0.75 0.429996 0.0628491
97 1 0 0.621395 0
103 1 0.25 0.565094 0.053483
145 1 0.5 0.621395 0
151 1 0.75 0.565094 0.053483
98 1 3.56679e-17 0.815094 0.053483
122 1 4.00817e-17 0.679996 0.0628491
124 1 0.25 0.736825 0.00919034
146 1 0.5 0.815094 0.053483
170 1 0.5 0.679996 0.0628491
172 1 0.75 0.736825 0.00919034
99 1 0.25 0.871395 0
121 1 0 0.986825 0.00919034
125 1 0.25 0.929996 0.0628491
147 1 0.75 0.871395 0
169 1 0.5 0.986825 0.00919034
173 1 0.75 0.929996 0.0628491
4 1 0 0.00715404 0.107864
33 1 0.25 0.122177 0.117742
52 1 0.5 0.00715404 0.107864
81 1 0.75 0.122177 0.117742
5 1 1 0.199689 0.162561
8 1 0.25 0.257154 0.107864
53 1 0.5 0.199689 0.162561
56 1 0.75 0.257154 0.107864
9 1 0.25 0.449689 0.162561
27 1 0 0.372177 0.117742
57 1 0.75 0.449689 0.162561
75 1 0.5 0.372177 0.117742
100 1 1.04306e-17 0.507154 0.107864
129 1 0.25 0.622177 0.117742
148 1 0.5 0.507154 0.107864
177 1 0.75 0.622177 0.117742
101 1 0 0.699689 0.162561
104 1 0.25 0.757154 0.107864
149 1 0.5 0.699689 0.162561
152 1 0.75 0.757154 0.107864
105 1 0.25 0.949689 0.162561
123 1 1.74769e-17 0.872177 0.117742
153 1 0.75 0.949689 0.162561
171 1 0.5 0.872177 0.117742
13 1 0.25 0.142091 0.217475
30 1 3.41948e-17 0.0646243 0.172365
37 1 0.25 0.00705467 0.226679
61 1 0.75 0.142091 0.217475
78 1 0.5 0.0646243 0.172365
85 1 0.75 0.00705467 0.226679
31 1 4.88341e-17 0.257055 0.226679
34 1 0.25 0.314624 0.172365
79 1 0.5 0.257055 0.226679
82 1 0.75 0.314624 0.172365
6 1 0 0.392091 0.217475
54 1 0.5 0.392091 0.217475
109 1 0.25 0.642091 0.217475
126 1 0 0.564624 0.172365
133 1 0.25 0.507055 0.226679
157 1 0.75 0.642091 0.217475
174 1 0.5 0.564624 0.172365
181 1 0.75 0.507055 0.226679
127 1 4.16389e-17 0.757055 0.226679
130 1 0.25 0.814624 0.172365
175 1 0.5 0.757055 0.226679
178 1 0.75 0.814624 0.172365
102 1 7.3366e-17 0.892091 0.217475
150 1 0.5 0.892091 0.217475
10 1 0 0.0845159 0.27163
17 1 0.25 0.0602743 0.334108
58 1 0.5 0.0845159 0.27163
65 1 0.75 0.0602743 0.334108
11 1 6.52908e-18 0.310274 0.334108
38 1 0.25 0.199479 0.281582
59 1 0.5 0.310274 0.334108
86 1 0.75 0.199479 0.281582
14 1 0.25 0.334516 0.27163
32 1 0 0.449479 0.281582
62 1 0.75 0.334516 0.27163
80 1 0.5 0.449479 0.281582
106 1 0 0.584516 0.27163
113 1 0.25 0.560274 0.334108
154 1 0.5 0.584516 0.27163
161 1 0.75 0.560274 0.334108
107 1 0 0.810274 0.334108
134 1 0.25 0.699479 0.281582
155 1 0.5 0.810274 0.334108
182 1 0.75 0.699479 0.281582
110 1 0.25 0.834516 0.27163
128 1 1 0.949479 0.281582
158 1 0.75 0.834516 0.27163
176 1 0.5 0.949479 0.281582
43 1 0.25 0.117662 0.398215
91 1 0.75 0.117662 0.398215
108 1 0 0.00269825 0.389011
156 1 0.5 0.00269825 0.389011
35 1 1.82552e-17 0.175237 0.344061
83 1 0.5 0.175237 0.344061
18 1 0.25 0.252698 0.389011
66 1 0.75 0.252698 0.389011
36 1 0 0.367662 0.398215
39 1 0.25 0.425237 0.344061
84 1 0.5 0.367662 0.398215
87 1 0.75 0.425237 0.344061
12 1 4.76406e-18 0.502698 0.389011
60 1 0.5 0.502698 0.389011
139 1 0.25 0.617662 0.398215
187 1 0.75 0.617662 0.398215
131 1 0 0.675237 0.344061
179 1 0.5 0.675237 0.344061
114 1 0.25 0.752698 0.389011
162 1 0.75 0.752698 0.389011
132 1 9.88134e-18 0.867662 0.398215
135 1 0.25 0.925237 0.344061
180 1 0.5 0.867662 0.398215
183 1 0.75 0.925237 0.344061
24 1 0.25 0.137576 0.497949
40 1 1 0.0600642 0.45313
72 1 0.75 0.137576 0.497949
88 1 0.5 0.0600642 0.45313
15 1 0 0.195129 0.443325
63 1 0.5 0.195129 0.443325
44 1 0.25 0.310064 0.45313
92 1 0.75 0.310064 0.45313
16 1 1.70474e-17 0.387576 0.497949
19 1 0.25 0.445129 0.443325
64 1 0.5 0.387576 0.497949
67 1 0.75 0.445129 0.443325
120 1 0.25 0.637576 0.497949
136 1 2.57553e-17 0.560064 0.45313
168 1 0.75 0.637576 0.497949
184 1 0.5 0.560064 0.45313
111 1 2.62312e-18 0.695129 0.443325
159 1 0.5 0.695129 0.443325
140 1 0.25 0.810064 0.45313
188 1 0.75 0.810064 0.45313
112 1 0 0.887576 0.497949
115 1 0.25 0.945129 0.443325
160 1 0.5 0.887576 0.497949
163 1 0.75 0.945129 0.443325
20 1 3.43753e-17 0.0797573 0.552841
68 1 0.5 0.0797573 0.552841
141 1 0.25 0.00259906 0.507827
189 1 0.75 0.00259906 0.507827
47 1 0.25 0.194659 0.562208
95 1 0.75 0.194659 0.562208
22 1 0.25 0.329757 0.552841
41 1 0 0.252599 0.507827
70 1 0.75 0.329757 0.552841
89 1 0.5 0.252599 0.507827
42 1 2.41617e-17 0.444659 0.562208
90 1 0.5 0.444659 0.562208
45 1 0.25 0.502599 0.507827
93 1 0.75 0.502599 0.507827
116 1 5.55776e-17 0.579757 0.552841
164 1 0.5 0.579757 0.552841
143 1 0.25 0.694659 0.562208
191 1 0.75 0.694659 0.562208
118 1 0.25 0.829757 0.552841
137 1 2.8427e-17 0.752599 0.507827
166 1 0.75 0.829757 0.552841
185 1 0.5 0.752599 0.507827
138 1 5.31328e-18 0.944659 0.562208
186 1 0.5 0.944659 0.562208
46 1 0 0.138358 0.615691
94 1 0.5 0.138358 0.615691
119 1 0.25 0.0229283 0.6065
167 1 0.75 0.0229283 0.6065
21 1 0 0.272928 0.6065
69 1 0.5 0.272928 0.6065
48 1 0.25 0.388358 0.615691
96 1 0.75 0.388358 0.615691
23 1 0.25 0.522928 0.6065
71 1 0.75 0.522928 0.6065
142 1 0 0.638358 0.615691
190 1 0.5 0.638358 0.615691
117 1 0 0.772928 0.6065
165 1 0.5 0.772928 0.6065
144 1 0.25 0.888358 0.615691
192 1 0.75 0.888358 0.615691
