ITEM: TIMESTEP
200
ITEM: NUMBER OF ATOMS
192
ITEM: BOX BOUNDS pp pp pp
0.0000000000000000e+00 7.1176886540000002e+00
0.0000000000000000e+00 2.5858194780409800e+01
0.0000000000000000e+00 4.8301037599330101e+01
ITEM: ATOMS id type xs ys zs
1 1 0 0.121395 0
7 1 0.25 0.0650943 0.0442883
49 1 0.5 0.121395 0
55 1 0.75 0.0650943 0.0442883
2 1 3.36001e-17 0.315094 0.0442883
26 1 0 0.179996 0.0544397
28 1 0.25 0.236825 0.00919034
50 1 0.5 0.315094 0.0442883
74 1 0.5 0.179996 0.0544397
76 1 0.75 0.236825 0.00919034
3 1 0.25 0.371395 0
25 1 0 0.486825 0.00919034
29 1 0.25 0.429996 0.0544397
51 1 0.75 0.371395 0
73 1 0.5 0.486825 0.00919034
77 1 0.75 0.429996 0.0544397
97 1 0 0.621395 0
103 1 0.25 0.565094 0.0442883
145 1 0.5 0.621395 0
151 1 0.75 0.565094 0.0442883
98 1 3.56679e-17 0.815094 0.0442883
122 1 4.00817e-17 0.679996 0.0544397
124 1 0.25 0.736825 0.00919034
146 1 0.5 0.815094 0.0442883
170 1 0.5 0.679996 0.0544397
172 1 0.75 0.736825 0.00919034
99 1 0.25 0.871395 0
121 1 0 0.986825 0.00919034
125 1 0.25 0.929996 0.0544397
147 1 0.75 0.871395 0
169 1 0.5 0.986825 0.00919034
173 1 0.75 0.929996 0.0544397
4 1 0 0.00715404 0.0900165
33 1 0.25 0.122177 0.101124
52 1 0.5 0.00715404 0.0900165
81 1 0.75 0.122177 0.101124
30 1 3.41948e-17 0.0646243 0.14737
78 1 0.5 0.0646243 0.14737
5 1 1 0.199689 0.1363
8 1 0.25 0.257154 0.0900165
53 1 0.5 0.199689 0.1363
56 1 0.75 0.257154 0.0900165
34 1 0.25 0.314624 0.14737
82 1 0.75 0.314624 0.14737
9 1 0.25 0.449689 0.1363
27 1 0 0.372177 0.101124
57 1 0.75 0.449689 0.1363
75 1 0.5 0.372177 0.101124
100 1 1.04306e-17 0.507154 0.0900165
129 1 0.25 0.622177 0.101124
148 1 0.5 0.507154 0.0900165
177 1 0.75 0.622177 0.101124
126 1 0 0.564624 0.14737
174 1 0.5 0.564624 0.14737
101 1 0 0.699689 0.1363
104 1 0.25 0.757154 0.0900165
149 1 0.5 0.699689 0.1363
152 1 0.75 0.757154 0.0900165
130 1 0.25 0.814624 0.14737
178 1 0.75 0.814624 0.14737
105 1 0.25 0.949689 0.1363
123 1 1.74769e-17 0.872177 0.101124
153 1 0.75 0.949689 0.1363
171 1 0.5 0.872177 0.101124
13 1 0.25 0.142091 0.182913
37 1 0.25 0.00705467 0.193177
61 1 0.75 0.142091 0.182913
85 1 0.75 0.00705467 0.193177
10 1 0 0.0845159 0.228439
58 1 0.5 0.0845159 0.228439
31 1 4.88341e-17 0.257055 0.193177
79 1 0.5 0.257055 0.193177
38 1 0.25 0.199479 0.23731
86 1 0.75 0.199479 0.23731
6 1 0 0.392091 0.182913
54 1 0.5 0.392091 0.182913
14 1 0.25 0.334516 0.228439
32 1 0 0.449479 0.23731
62 1 0.75 0.334516 0.228439
80 1 0.5 0.449479 0.23731
109 1 0.25 0.642091 0.182913
133 1 0.25 0.507055 0.193177
157 1 0.75 0.642091 0.182913
181 1 0.75 0.507055 0.193177
106 1 0 0.584516 0.228439
154 1 0.5 0.584516 0.228439
127 1 4.16389e-17 0.757055 0.193177
175 1 0.5 0.757055 0.193177
134 1 0.25 0.699479 0.23731
182 1 0.75 0.699479 0.23731
102 1 7.3366e-17 0.892091 0.182913
150 1 0.5 0.892091 0.182913
110 1 0.25 0.834516 0.228439
128 1 1 0.949479 0.23731
158 1 0.75 0.834516 0.228439
176 1 0.5 0.949479 0.23731
135 1 0.25 0.141904 0.387252
183 1 0.75 0.141904 0.387252
107 1 0 0.026941 0.37838
155 1 0.5 0.026941 0.37838
17 1 0.25 0.276941 0.37838
65 1 0.75 0.276941 0.37838
35 1 1.82552e-17 0.391904 0.387252
83 1 0.5 0.391904 0.387252
11 1 6.52908e-18 0.526941 0.37838
59 1 0.5 0.526941 0.37838
39 1 0.25 0.641904 0.387252
87 1 0.75 0.641904 0.387252
113 1 0.25 0.776941 0.37838
161 1 0.75 0.776941 0.37838
131 1 0 0.891904 0.387252
179 1 0.5 0.891904 0.387252
115 1 0.25 0.161795 0.468321
163 1 0.75 0.161795 0.468321
132 1 9.88134e-18 0.0843285 0.432777
180 1 0.5 0.0843285 0.432777
140 1 0.25 0.0267309 0.47939
188 1 0.75 0.0267309 0.47939
108 1 0 0.219365 0.422514
156 1 0.5 0.219365 0.422514
40 1 1 0.276731 0.47939
88 1 0.5 0.276731 0.47939
43 1 0.25 0.334329 0.432777
91 1 0.75 0.334329 0.432777
15 1 0 0.411795 0.468321
63 1 0.5 0.411795 0.468321
18 1 0.25 0.469365 0.422514
66 1 0.75 0.469365 0.422514
44 1 0.25 0.526731 0.47939
92 1 0.75 0.526731 0.47939
36 1 0 0.584329 0.432777
84 1 0.5 0.584329 0.432777
19 1 0.25 0.661795 0.468321
67 1 0.75 0.661795 0.468321
12 1 4.76406e-18 0.719365 0.422514
60 1 0.5 0.719365 0.422514
136 1 2.57553e-17 0.776731 0.47939
184 1 0.5 0.776731 0.47939
139 1 0.25 0.834329 0.432777
187 1 0.75 0.834329 0.432777
111 1 2.62312e-18 0.911795 0.468321
159 1 0.5 0.911795 0.468321
114 1 0.25 0.969365 0.422514
162 1 0.75 0.969365 0.422514
138 1 5.31328e-18 0.161326 0.571402
186 1 0.5 0.161326 0.571402
112 1 0 0.104242 0.514567
160 1 0.5 0.104242 0.514567
118 1 0.25 0.046424 0.561251
166 1 0.75 0.046424 0.561251
141 1 0.25 0.219266 0.525674
189 1 0.75 0.219266 0.525674
20 1 3.43753e-17 0.296424 0.561251
68 1 0.5 0.296424 0.561251
24 1 0.25 0.354242 0.514567
72 1 0.75 0.354242 0.514567
47 1 0.25 0.411326 0.571402
95 1 0.75 0.411326 0.571402
41 1 0 0.469266 0.525674
89 1 0.5 0.469266 0.525674
22 1 0.25 0.546424 0.561251
70 1 0.75 0.546424 0.561251
16 1 1.70474e-17 0.604242 0.514567
64 1 0.5 0.604242 0.514567
42 1 2.41617e-17 0.661326 0.571402
90 1 0.5 0.661326 0.571402
45 1 0.25 0.719266 0.525674
93 1 0.75 0.719266 0.525674
116 1 5.55776e-17 0.796424 0.561251
164 1 0.5 0.796424 0.561251
120 1 0.25 0.854242 0.514567
168 1 0.75 0.854242 0.514567
143 1 0.25 0.911326 0.571402
191 1 0.75 0.911326 0.571402
137 1 2.8427e-17 0.969266 0.525674
185 1 0.5 0.969266 0.525674
144 1 0.25 0.105025 0.615691
192 1 0.75 0.105025 0.615691
119 1 0.25 0.239595 0.6065
167 1 0.75 0.239595 0.6065
46 1 0 0.355025 0.615691
94 1 0.5 0.355025 0.615691
21 1 0 0.489595 0.6065
69 1 0.5 0.489595 0.6065
48 1 0.25 0.605025 0.615691
96 1 0.75 0.605025 0.615691
23 1 0.25 0.739595 0.6065
71 1 0.75 0.739595 0.6065
142 1 0 0.855025 0.615691
190 1 0.5 0.855025 0.615691
117 1 0 0.989595 0.6065
165 1 0.5 0.989595 0.6065
