ITEM: TIMESTEP
23
ITEM: NUMBER OF ATOMS
48
ITEM: BOX BOUNDS pp pp pp
0.0000000000000000e+00 2.9505999088000001e+00
0.0000000000000000e+00 1.0662213269878100e+01
0.0000000000000000e+00 4.3042699813799999e+01
ITEM: ATOMS id type xs ys zs
1 1 0 0.24279 0
7 1 0.5 0.137017 0.0489225
26 1 0 0.366753 0.0577913
28 1 0.5 0.47365 0.00868461
2 1 8.17206e-17 0.637017 0.0489226
3 1 0.5 0.74279 0
25 1 0 0.97365 0.00868461
29 1 0.5 0.866753 0.0577913
4 1 1 0.0185161 0.102842
5 1 1 0.402243 0.154999
30 1 1.05805e-16 0.133585 0.163469
33 1 0.5 0.250037 0.111254
8 1 0.5 0.518516 0.102842
9 1 0.5 0.902243 0.154999
27 1 1.07665e-16 0.750037 0.111254
34 1 0.5 0.633585 0.163469
10 1 2.22028e-17 0.169003 0.259633
13 1 0.5 0.285518 0.207575
37 1 0.5 0.0168956 0.215881
38 1 0.5 0.400396 0.268882
6 1 2.21384e-17 0.785518 0.207575
14 1 0.5 0.669003 0.259633
31 1 5.75118e-17 0.516896 0.215881
32 1 7.57478e-18 0.900396 0.268882
17 1 0.5 0.0857763 0.312928
35 1 1.54604e-16 0.317169 0.322177
11 1 1 0.585776 0.312928
39 1 0.5 0.817169 0.322177
15 1 1 0.352588 0.418341
18 1 0.5 0.469277 0.36593
40 1 1 0.0839295 0.426812
43 1 0.5 0.200654 0.374235
12 1 6.873e-17 0.969277 0.36593
19 1 0.5 0.852588 0.418341
36 1 2.27648e-16 0.700654 0.374235
44 1 0.5 0.58393 0.426812
20 1 1 0.11942 0.524019
24 1 0.5 0.236136 0.470557
41 1 9.31234e-17 0.467657 0.478969
47 1 0.5 0.349157 0.532888
16 1 0 0.736136 0.470557
22 1 0.5 0.61942 0.524019
42 1 0 0.849157 0.532888
45 1 0.5 0.967657 0.478969
46 1 0 0.243383 0.58181
23 1 0.5 0.0125233 0.573126
21 1 0 0.512523 0.573126
48 1 0.5 0.743383 0.58181
