ITEM: TIMESTEP
106
ITEM: NUMBER OF ATOMS
48
ITEM: BOX BOUNDS pp pp pp
0.0000000000000000e+00 2.9505999088000001e+00
0.0000000000000000e+00 1.0662213269878100e+01
0.0000000000000000e+00 4.3042699813799999e+01
ITEM: ATOMS id type xs ys zs
1 1 0 0.24279 0
7 1 0.5 0.137017 0.0483543
26 1 0 0.366753 0.0572566
28 1 0.5 0.47365 0.00868461
2 1 8.17206e-17 0.637017 0.0483543
3 1 0.5 0.74279 0
25 1 0 0.97365 0.00868461
29 1 0.5 0.866753 0.0572566
4 1 1 0.0185161 0.101564
5 1 1 0.402243 0.153295
30 1 1.05805e-16 0.133585 0.161472
33 1 0.5 0.250037 0.110133
8 1 0.5 0.518516 0.101564
9 1 0.5 0.902243 0.153295
27 1 1.07665e-16 0.750037 0.110133
34 1 0.5 0.633585 0.161472
10 1 2.22028e-17 0.169003 0.26092
13 1 0.5 0.285518 0.206072
37 1 0.5 0.0168956 0.213689
38 1 0.5 0.400396 0.261881
6 1 2.21384e-17 0.785518 0.206072
14 1 0.5 0.669003 0.26092
31 1 5.75118e-17 0.516896 0.213689
32 1 7.57478e-18 0.900396 0.261881
17 1 0.5 0.385776 0.319929
39 1 0.5 0.117169 0.32089
35 1 1.54604e-16 0.617169 0.32089
11 1 1 0.885776 0.319929
40 1 1 0.38393 0.428515
12 1 6.873e-17 0.269277 0.368122
19 1 0.5 0.152588 0.420338
36 1 2.27648e-16 0.000654333 0.375739
43 1 0.5 0.500654 0.375739
15 1 1 0.652588 0.420338
18 1 0.5 0.769277 0.368122
44 1 0.5 0.88393 0.428515
20 1 1 0.41942 0.524554
45 1 0.5 0.267657 0.480247
42 1 0 0.149157 0.533456
16 1 0 0.036136 0.471678
24 1 0.5 0.536136 0.471678
47 1 0.5 0.649157 0.533456
41 1 9.31234e-17 0.767657 0.480247
22 1 0.5 0.91942 0.524554
23 1 0.5 0.312523 0.573126
48 1 0.5 0.0433833 0.58181
46 1 0 0.543383 0.58181
21 1 0 0.812523 0.573126
