ITEM: TIMESTEP
281
ITEM: NUMBER OF ATOMS
192
ITEM: BOX BOUNDS pp pp pp
0.0000000000000000e+00 7.1176886540000002e+00
0.0000000000000000e+00 2.5858194780409800e+01
0.0000000000000000e+00 4.8301037599330101e+01
ITEM: ATOMS id type xs ys zs
1 1 0 0.121395 0
7 1 0.25 0.0650943 0.044322
49 1 0.5 0.121395 0
55 1 0.75 0.0650943 0.044322
2 1 3.36001e-17 0.315094 0.044322
26 1 0 0.179996 0.0544599
28 1 0.25 0.236825 0.00919034
50 1 0.5 0.315094 0.044322
74 1 0.5 0.179996 0.0544599
76 1 0.75 0.236825 0.00919034
3 1 0.25 0.371395 0
25 1 0 0.486825 0.00919034
29 1 0.25 0.429996 0.0544599
51 1 0.75 0.371395 0
73 1 0.5 0.486825 0.00919034
77 1 0.75 0.429996 0.0544599
97 1 0 0.621395 0
103 1 0.25 0.565094 0.044322
145 1 0.5 0.621395 0
151 1 0.75 0.565094 0.044322
98 1 3.56679e-17 0.815094 0.044322
122 1 4.00817e-17 0.679996 0.0544599
124 1 0.25 0.736825 0.00919034
146 1 0.5 0.815094 0.044322
170 1 0.5 0.679996 0.0544599
172 1 0.75 0.736825 0.00919034
99 1 0.25 0.871395 0
121 1 0 0.986825 0.00919034
125 1 0.25 0.929996 0.0544599
147 1 0.75 0.871395 0
169 1 0.5 0.986825 0.00919034
173 1 0.75 0.929996 0.0544599
4 1 0 0.00715404 0.0901028
33 1 0.25 0.122177 0.101193
52 1 0.5 0.00715404 0.0901028
81 1 0.75 0.122177 0.101193
30 1 3.41948e-17 0.0646243 0.14749
78 1 0.5 0.0646243 0.14749
5 1 1 0.199689 0.136435
8 1 0.25 0.257154 0.0901028
53 1 0.5 0.199689 0.136435
56 1 0.75 0.257154 0.0901028
34 1 0.25 0.314624 0.14749
82 1 0.75 0.314624 0.14749
9 1 0.25 0.449689 0.136435
27 1 0 0.372177 0.101193
57 1 0.75 0.449689 0.136435
75 1 0.5 0.372177 0.101193
100 1 1.04306e-17 0.507154 0.0901028
129 1 0.25 0.622177 0.101193
148 1 0.5 0.507154 0.0901028
177 1 0.75 0.622177 0.101193
126 1 0 0.564624 0.14749
174 1 0.5 0.564624 0.14749
101 1 0 0.699689 0.136435
104 1 0.25 0.757154 0.0901028
149 1 0.5 0.699689 0.136435
152 1 0.75 0.757154 0.0901028
130 1 0.25 0.814624 0.14749
178 1 0.75 0.814624 0.14749
105 1 0.25 0.949689 0.136435
123 1 1.74769e-17 0.872177 0.101193
153 1 0.75 0.949689 0.136435
171 1 0.5 0.872177 0.101193
13 1 0.25 0.142091 0.183097
37 1 0.25 0.00705467 0.193347
61 1 0.75 0.142091 0.183097
85 1 0.75 0.00705467 0.193347
10 1 0 0.0845159 0.228636
58 1 0.5 0.0845159 0.228636
31 1 4.88341e-17 0.257055 0.193347
79 1 0.5 0.257055 0.193347
38 1 0.25 0.199479 0.237517
86 1 0.75 0.199479 0.237517
6 1 0 0.392091 0.183097
54 1 0.5 0.392091 0.183097
14 1 0.25 0.334516 0.228636
32 1 0 0.449479 0.237517
62 1 0.75 0.334516 0.228636
80 1 0.5 0.449479 0.237517
109 1 0.25 0.642091 0.183097
133 1 0.25 0.507055 0.193347
157 1 0.75 0.642091 0.183097
181 1 0.75 0.507055 0.193347
106 1 0 0.584516 0.228636
154 1 0.5 0.584516 0.228636
127 1 4.16389e-17 0.757055 0.193347
175 1 0.5 0.757055 0.193347
134 1 0.25 0.699479 0.237517
182 1 0.75 0.699479 0.237517
102 1 7.3366e-17 0.892091 0.183097
150 1 0.5 0.892091 0.183097
110 1 0.25 0.834516 0.228636
128 1 1 0.949479 0.237517
158 1 0.75 0.834516 0.228636
176 1 0.5 0.949479 0.237517
131 1 0 0.0919037 0.387054
179 1 0.5 0.0919037 0.387054
107 1 0 0.226941 0.378174
155 1 0.5 0.226941 0.378174
135 1 0.25 0.341904 0.387054
183 1 0.75 0.341904 0.387054
17 1 0.25 0.476941 0.378174
65 1 0.75 0.476941 0.378174
35 1 1.82552e-17 0.591904 0.387054
83 1 0.5 0.591904 0.387054
11 1 6.52908e-18 0.726941 0.378174
59 1 0.5 0.726941 0.378174
39 1 0.25 0.841904 0.387054
87 1 0.75 0.841904 0.387054
113 1 0.25 0.976941 0.378174
161 1 0.75 0.976941 0.378174
111 1 2.62312e-18 0.111795 0.468201
159 1 0.5 0.111795 0.468201
139 1 0.25 0.0343285 0.432593
187 1 0.75 0.0343285 0.432593
114 1 0.25 0.169365 0.422344
162 1 0.75 0.169365 0.422344
140 1 0.25 0.226731 0.479256
188 1 0.75 0.226731 0.479256
132 1 9.88134e-18 0.284329 0.432593
180 1 0.5 0.284329 0.432593
115 1 0.25 0.361795 0.468201
163 1 0.75 0.361795 0.468201
108 1 0 0.419365 0.422344
156 1 0.5 0.419365 0.422344
40 1 1 0.476731 0.479256
88 1 0.5 0.476731 0.479256
43 1 0.25 0.534329 0.432593
91 1 0.75 0.534329 0.432593
15 1 0 0.611795 0.468201
63 1 0.5 0.611795 0.468201
18 1 0.25 0.669365 0.422344
66 1 0.75 0.669365 0.422344
44 1 0.25 0.726731 0.479256
92 1 0.75 0.726731 0.479256
36 1 0 0.784329 0.432593
84 1 0.5 0.784329 0.432593
19 1 0.25 0.861795 0.468201
67 1 0.75 0.861795 0.468201
12 1 4.76406e-18 0.919365 0.422344
60 1 0.5 0.919365 0.422344
136 1 2.57553e-17 0.976731 0.479256
184 1 0.5 0.976731 0.479256
143 1 0.25 0.111326 0.571369
191 1 0.75 0.111326 0.571369
120 1 0.25 0.0542424 0.514497
168 1 0.75 0.0542424 0.514497
137 1 2.8427e-17 0.169266 0.525588
185 1 0.5 0.169266 0.525588
118 1 0.25 0.246424 0.561231
166 1 0.75 0.246424 0.561231
112 1 0 0.304242 0.514497
160 1 0.5 0.304242 0.514497
138 1 5.31328e-18 0.361326 0.571369
186 1 0.5 0.361326 0.571369
141 1 0.25 0.419266 0.525588
189 1 0.75 0.419266 0.525588
20 1 3.43753e-17 0.496424 0.561231
68 1 0.5 0.496424 0.561231
24 1 0.25 0.554242 0.514497
72 1 0.75 0.554242 0.514497
47 1 0.25 0.611326 0.571369
95 1 0.75 0.611326 0.571369
41 1 0 0.669266 0.525588
89 1 0.5 0.669266 0.525588
22 1 0.25 0.746424 0.561231
70 1 0.75 0.746424 0.561231
16 1 1.70474e-17 0.804242 0.514497
64 1 0.5 0.804242 0.514497
42 1 2.41617e-17 0.861326 0.571369
90 1 0.5 0.861326 0.571369
45 1 0.25 0.919266 0.525588
93 1 0.75 0.919266 0.525588
116 1 5.55776e-17 0.996424 0.561231
164 1 0.5 0.996424 0.561231
142 1 0 0.055025 0.615691
190 1 0.5 0.055025 0.615691
117 1 0 0.189595 0.6065
165 1 0.5 0.189595 0.6065
144 1 0.25 0.305025 0.615691
192 1 0.75 0.305025 0.615691
119 1 0.25 0.439595 0.6065
167 1 0.75 0.439595 0.6065
46 1 0 0.555025 0.615691
94 1 0.5 0.555025 0.615691
21 1 0 0.689595 0.6065
69 1 0.5 0.689595 0.6065
48 1 0.25 0.805025 0.615691
96 1 0.75 0.805025 0.615691
23 1 0.25 0.939595 0.6065
71 1 0.75 0.939595 0.6065
