ITEM: TIMESTEP
243
ITEM: NUMBER OF ATOMS
48
ITEM: BOX BOUNDS pp pp pp
0.0000000000000000e+00 2.9505999088000001e+00
0.0000000000000000e+00 1.0662213269878100e+01
0.0000000000000000e+00 4.3042699813799999e+01
ITEM: ATOMS id type xs ys zs
1 1 0 0.24279 0
7 1 0.5 0.137017 0.0483534
26 1 0 0.366753 0.0572648
28 1 0.5 0.47365 0.00868461
2 1 8.17206e-17 0.637017 0.0483534
3 1 0.5 0.74279 0
25 1 0 0.97365 0.00868461
29 1 0.5 0.866753 0.0572648
4 1 1 0.0185161 0.101584
5 1 1 0.402243 0.153198
30 1 1.05805e-16 0.133585 0.161598
33 1 0.5 0.250037 0.110126
8 1 0.5 0.518516 0.101584
9 1 0.5 0.902243 0.153198
27 1 1.07665e-16 0.750037 0.110126
34 1 0.5 0.633585 0.161598
10 1 2.22028e-17 0.169003 0.258576
13 1 0.5 0.285518 0.206173
37 1 0.5 0.0168956 0.213676
38 1 0.5 0.400396 0.263563
6 1 2.21384e-17 0.785518 0.206173
14 1 0.5 0.669003 0.258576
31 1 5.75118e-17 0.516896 0.213676
32 1 7.57478e-18 0.900396 0.263563
11 1 1 0.41911 0.318248
35 1 1.54604e-16 0.150502 0.323235
39 1 0.5 0.650502 0.323235
17 1 0.5 0.91911 0.318248
44 1 0.5 0.417263 0.428612
18 1 0.5 0.30261 0.368134
15 1 1 0.185921 0.420212
43 1 0.5 0.0339877 0.375637
36 1 2.27648e-16 0.533988 0.375637
19 1 0.5 0.685921 0.420212
12 1 6.873e-17 0.80261 0.368134
40 1 1 0.917263 0.428612
22 1 0.5 0.452753 0.524546
41 1 9.31234e-17 0.30099 0.480226
47 1 0.5 0.18249 0.533457
24 1 0.5 0.0694693 0.471684
16 1 0 0.569469 0.471684
42 1 0 0.68249 0.533457
45 1 0.5 0.80099 0.480226
20 1 1 0.952753 0.524546
21 1 0 0.345857 0.573126
46 1 0 0.0767167 0.58181
48 1 0.5 0.576717 0.58181
23 1 0.5 0.845857 0.573126
