ITEM: TIMESTEP
123
ITEM: NUMBER OF ATOMS
48
ITEM: BOX BOUNDS pp pp pp
0.0000000000000000e+00 2.9505999088000001e+00
0.0000000000000000e+00 1.0662213269878100e+01
0.0000000000000000e+00 4.3042699813799999e+01
ITEM: ATOMS id type xs ys zs
1 1 0 0.24279 0
7 1 0.5 0.137017 0.0483437
26 1 0 0.366753 0.0572461
28 1 0.5 0.47365 0.00868461
2 1 8.17206e-17 0.637017 0.0483437
3 1 0.5 0.74279 0
25 1 0 0.97365 0.00868461
29 1 0.5 0.866753 0.0572461
4 1 1 0.0185161 0.101548
5 1 1 0.402243 0.153298
30 1 1.05805e-16 0.133585 0.161452
33 1 0.5 0.250037 0.110108
8 1 0.5 0.518516 0.101548
9 1 0.5 0.902243 0.153298
27 1 1.07665e-16 0.750037 0.110108
34 1 0.5 0.633585 0.161452
10 1 2.22028e-17 0.169003 0.259961
13 1 0.5 0.285518 0.205975
37 1 0.5 0.0168956 0.213497
38 1 0.5 0.400396 0.26246
6 1 2.21384e-17 0.785518 0.205975
14 1 0.5 0.669003 0.259961
31 1 5.75118e-17 0.516896 0.213497
32 1 7.57478e-18 0.900396 0.26246
17 1 0.5 0.452443 0.319351
39 1 0.5 0.183836 0.321849
35 1 1.54604e-16 0.683836 0.321849
11 1 1 0.952443 0.319351
40 1 1 0.450596 0.428512
12 1 6.873e-17 0.335944 0.368313
19 1 0.5 0.219255 0.420359
36 1 2.27648e-16 0.067321 0.375835
43 1 0.5 0.567321 0.375835
15 1 1 0.719255 0.420359
18 1 0.5 0.835944 0.368313
44 1 0.5 0.950596 0.428512
20 1 1 0.486086 0.524564
45 1 0.5 0.334323 0.480262
42 1 0 0.215823 0.533467
16 1 0 0.102803 0.471702
24 1 0.5 0.602803 0.471702
47 1 0.5 0.715823 0.533467
41 1 9.31234e-17 0.834323 0.480262
22 1 0.5 0.986086 0.524564
23 1 0.5 0.37919 0.573126
48 1 0.5 0.11005 0.58181
46 1 0 0.61005 0.58181
21 1 0 0.87919 0.573126
