ITEM: TIMESTEP
49
ITEM: NUMBER OF ATOMS
48
ITEM: BOX BOUNDS pp pp pp
0.0000000000000000e+00 2.9505999088000001e+00
0.0000000000000000e+00 1.0662213269878100e+01
0.0000000000000000e+00 4.3042699813799999e+01
ITEM: ATOMS id type xs ys zs
1 1 0 0.24279 0
7 1 0.5 0.137017 0.048464
26 1 0 0.366753 0.0573696
28 1 0.5 0.47365 0.00868461
2 1 8.17206e-17 0.637017 0.048464
3 1 0.5 0.74279 0
25 1 0 0.97365 0.00868461
29 1 0.5 0.866753 0.0573696
4 1 1 0.0185161 0.101836
5 1 1 0.402243 0.153518
30 1 1.05805e-16 0.133585 0.162055
33 1 0.5 0.250037 0.110341
8 1 0.5 0.518516 0.101836
9 1 0.5 0.902243 0.153518
27 1 1.07665e-16 0.750037 0.110341
34 1 0.5 0.633585 0.162055
10 1 2.22028e-17 0.169003 0.257645
13 1 0.5 0.285518 0.20641
37 1 0.5 0.0168956 0.213736
38 1 0.5 0.400396 0.266294
6 1 2.21384e-17 0.785518 0.20641
14 1 0.5 0.669003 0.257645
31 1 5.75118e-17 0.516896 0.213736
32 1 7.57478e-18 0.900396 0.266294
17 1 0.5 0.185776 0.315517
35 1 1.54604e-16 0.417169 0.324165
11 1 1 0.685776 0.315517
39 1 0.5 0.917169 0.324165
15 1 1 0.452588 0.419756
40 1 1 0.18393 0.428292
43 1 0.5 0.300654 0.375401
12 1 6.873e-17 0.0692769 0.368075
18 1 0.5 0.569277 0.368075
19 1 0.5 0.952588 0.419756
36 1 2.27648e-16 0.800654 0.375401
44 1 0.5 0.68393 0.428292
20 1 1 0.21942 0.524441
24 1 0.5 0.336136 0.471469
47 1 0.5 0.449157 0.533346
45 1 0.5 0.0676568 0.479975
41 1 9.31234e-17 0.567657 0.479975
16 1 0 0.836136 0.471469
22 1 0.5 0.71942 0.524441
42 1 0 0.949157 0.533346
46 1 0 0.343383 0.58181
23 1 0.5 0.112523 0.573126
21 1 0 0.612523 0.573126
48 1 0.5 0.843383 0.58181
