ITEM: TIMESTEP
272
ITEM: NUMBER OF ATOMS
192
ITEM: BOX BOUNDS pp pp pp
0.0000000000000000e+00 7.1176886540000002e+00
0.0000000000000000e+00 2.5858194780409800e+01
0.0000000000000000e+00 4.8301037599330101e+01
ITEM: ATOMS id type xs ys zs
1 1 0 0.121395 0
7 1 0.25 0.0650943 0.0443454
49 1 0.5 0.121395 0
55 1 0.75 0.0650943 0.0443454
2 1 3.36001e-17 0.315094 0.0443454
26 1 0 0.179996 0.0544736
28 1 0.25 0.236825 0.00919034
50 1 0.5 0.315094 0.0443454
74 1 0.5 0.179996 0.0544736
76 1 0.75 0.236825 0.00919034
3 1 0.25 0.371395 0
25 1 0 0.486825 0.00919034
29 1 0.25 0.429996 0.0544736
51 1 0.75 0.371395 0
73 1 0.5 0.486825 0.00919034
77 1 0.75 0.429996 0.0544736
97 1 0 0.621395 0
103 1 0.25 0.565094 0.0443454
145 1 0.5 0.621395 0
151 1 0.75 0.565094 0.0443454
98 1 3.56679e-17 0.815094 0.0443454
122 1 4.00817e-17 0.679996 0.0544736
124 1 0.25 0.736825 0.00919034
146 1 0.5 0.815094 0.0443454
170 1 0.5 0.679996 0.0544736
172 1 0.75 0.736825 0.00919034
99 1 0.25 0.871395 0
121 1 0 0.986825 0.00919034
125 1 0.25 0.929996 0.0544736
147 1 0.75 0.871395 0
169 1 0.5 0.986825 0.00919034
173 1 0.75 0.929996 0.0544736
4 1 0 0.00715404 0.0901631
33 1 0.25 0.122177 0.101241
52 1 0.5 0.00715404 0.0901631
81 1 0.75 0.122177 0.101241
30 1 3.41948e-17 0.0646243 0.147573
78 1 0.5 0.0646243 0.147573
5 1 1 0.199689 0.136529
8 1 0.25 0.257154 0.0901631
53 1 0.5 0.199689 0.136529
56 1 0.75 0.257154 0.0901631
34 1 0.25 0.314624 0.147573
82 1 0.75 0.314624 0.147573
9 1 0.25 0.449689 0.136529
27 1 0 0.372177 0.101241
57 1 0.75 0.449689 0.136529
75 1 0.5 0.372177 0.101241
100 1 1.04306e-17 0.507154 0.0901631
129 1 0.25 0.622177 0.101241
148 1 0.5 0.507154 0.0901631
177 1 0.75 0.622177 0.101241
126 1 0 0.564624 0.147573
174 1 0.5 0.564624 0.147573
101 1 0 0.699689 0.136529
104 1 0.25 0.757154 0.0901631
149 1 0.5 0.699689 0.136529
152 1 0.75 0.757154 0.0901631
130 1 0.25 0.814624 0.147573
178 1 0.75 0.814624 0.147573
105 1 0.25 0.949689 0.136529
123 1 1.74769e-17 0.872177 0.101241
153 1 0.75 0.949689 0.136529
171 1 0.5 0.872177 0.101241
13 1 0.25 0.142091 0.183228
37 1 0.25 0.00705467 0.193467
61 1 0.75 0.142091 0.183228
85 1 0.75 0.00705467 0.193467
10 1 0 0.0845159 0.228776
58 1 0.5 0.0845159 0.228776
31 1 4.88341e-17 0.257055 0.193467
79 1 0.5 0.257055 0.193467
38 1 0.25 0.199479 0.237664
86 1 0.75 0.199479 0.237664
6 1 0 0.392091 0.183228
54 1 0.5 0.392091 0.183228
14 1 0.25 0.334516 0.228776
32 1 0 0.449479 0.237664
62 1 0.75 0.334516 0.228776
80 1 0.5 0.449479 0.237664
109 1 0.25 0.642091 0.183228
133 1 0.25 0.507055 0.193467
157 1 0.75 0.642091 0.183228
181 1 0.75 0.507055 0.193467
106 1 0 0.584516 0.228776
154 1 0.5 0.584516 0.228776
127 1 4.16389e-17 0.757055 0.193467
175 1 0.5 0.757055 0.193467
134 1 0.25 0.699479 0.237664
182 1 0.75 0.699479 0.237664
102 1 7.3366e-17 0.892091 0.183228
150 1 0.5 0.892091 0.183228
110 1 0.25 0.834516 0.228776
128 1 1 0.949479 0.237664
158 1 0.75 0.834516 0.228776
176 1 0.5 0.949479 0.237664
131 1 0 0.075237 0.386915
179 1 0.5 0.075237 0.386915
107 1 0 0.210274 0.378027
155 1 0.5 0.210274 0.378027
135 1 0.25 0.325237 0.386915
183 1 0.75 0.325237 0.386915
17 1 0.25 0.460274 0.378027
65 1 0.75 0.460274 0.378027
35 1 1.82552e-17 0.575237 0.386915
83 1 0.5 0.575237 0.386915
11 1 6.52908e-18 0.710274 0.378027
59 1 0.5 0.710274 0.378027
39 1 0.25 0.825237 0.386915
87 1 0.75 0.825237 0.386915
113 1 0.25 0.960274 0.378027
161 1 0.75 0.960274 0.378027
114 1 0.25 0.152698 0.422223
162 1 0.75 0.152698 0.422223
111 1 2.62312e-18 0.0951286 0.468117
159 1 0.5 0.0951286 0.468117
139 1 0.25 0.0176618 0.432462
187 1 0.75 0.0176618 0.432462
140 1 0.25 0.210064 0.479161
188 1 0.75 0.210064 0.479161
132 1 9.88134e-18 0.267662 0.432462
180 1 0.5 0.267662 0.432462
115 1 0.25 0.345129 0.468117
163 1 0.75 0.345129 0.468117
108 1 0 0.402698 0.422223
156 1 0.5 0.402698 0.422223
40 1 1 0.460064 0.479161
88 1 0.5 0.460064 0.479161
43 1 0.25 0.517662 0.432462
91 1 0.75 0.517662 0.432462
15 1 0 0.595129 0.468117
63 1 0.5 0.595129 0.468117
18 1 0.25 0.652698 0.422223
66 1 0.75 0.652698 0.422223
44 1 0.25 0.710064 0.479161
92 1 0.75 0.710064 0.479161
36 1 0 0.767662 0.432462
84 1 0.5 0.767662 0.432462
19 1 0.25 0.845129 0.468117
67 1 0.75 0.845129 0.468117
12 1 4.76406e-18 0.902698 0.422223
60 1 0.5 0.902698 0.422223
136 1 2.57553e-17 0.960064 0.479161
184 1 0.5 0.960064 0.479161
137 1 2.8427e-17 0.152599 0.525527
185 1 0.5 0.152599 0.525527
143 1 0.25 0.0946589 0.571345
191 1 0.75 0.0946589 0.571345
120 1 0.25 0.0375757 0.514449
168 1 0.75 0.0375757 0.514449
118 1 0.25 0.229757 0.561217
166 1 0.75 0.229757 0.561217
112 1 0 0.287576 0.514449
160 1 0.5 0.287576 0.514449
138 1 5.31328e-18 0.344659 0.571345
186 1 0.5 0.344659 0.571345
141 1 0.25 0.402599 0.525527
189 1 0.75 0.402599 0.525527
20 1 3.43753e-17 0.479757 0.561217
68 1 0.5 0.479757 0.561217
24 1 0.25 0.537576 0.514449
72 1 0.75 0.537576 0.514449
47 1 0.25 0.594659 0.571345
95 1 0.75 0.594659 0.571345
41 1 0 0.652599 0.525527
89 1 0.5 0.652599 0.525527
22 1 0.25 0.729757 0.561217
70 1 0.75 0.729757 0.561217
16 1 1.70474e-17 0.787576 0.514449
64 1 0.5 0.787576 0.514449
42 1 2.41617e-17 0.844659 0.571345
90 1 0.5 0.844659 0.571345
45 1 0.25 0.902599 0.525527
93 1 0.75 0.902599 0.525527
116 1 5.55776e-17 0.979757 0.561217
164 1 0.5 0.979757 0.561217
142 1 0 0.0383583 0.615691
190 1 0.5 0.0383583 0.615691
117 1 0 0.172928 0.6065
165 1 0.5 0.172928 0.6065
144 1 0.25 0.288358 0.615691
192 1 0.75 0.288358 0.615691
119 1 0.25 0.422928 0.6065
167 1 0.75 0.422928 0.6065
46 1 0 0.538358 0.615691
94 1 0.5 0.538358 0.615691
21 1 0 0.672928 0.6065
69 1 0.5 0.672928 0.6065
48 1 0.25 0.788358 0.615691
96 1 0.75 0.788358 0.615691
23 1 0.25 0.922928 0.6065
71 1 0.75 0.922928 0.6065
