ITEM: TIMESTEP
140
ITEM: NUMBER OF ATOMS
48
ITEM: BOX BOUNDS pp pp pp
0.0000000000000000e+00 2.9505999088000001e+00
0.0000000000000000e+00 1.0662213269878100e+01
0.0000000000000000e+00 4.3042699813799999e+01
ITEM: ATOMS id type xs ys zs
1 1 0 0.24279 0
7 1 0.5 0.137017 0.0484595
26 1 0 0.366753 0.0573498
28 1 0.5 0.47365 0.00868461
2 1 8.17206e-17 0.637017 0.0484595
3 1 0.5 0.74279 0
25 1 0 0.97365 0.00868461
29 1 0.5 0.866753 0.0573498
4 1 1 0.0185161 0.101796
5 1 1 0.402243 0.153718
30 1 1.05805e-16 0.133585 0.161834
33 1 0.5 0.250037 0.110325
8 1 0.5 0.518516 0.101796
9 1 0.5 0.902243 0.153718
27 1 1.07665e-16 0.750037 0.110325
34 1 0.5 0.633585 0.161834
10 1 2.22028e-17 0.169003 0.260925
13 1 0.5 0.285518 0.206497
37 1 0.5 0.0168956 0.213651
38 1 0.5 0.400396 0.263563
6 1 2.21384e-17 0.785518 0.206497
14 1 0.5 0.669003 0.260925
31 1 5.75118e-17 0.516896 0.213651
32 1 7.57478e-18 0.900396 0.263563
39 1 0.5 0.250502 0.320885
11 1 1 0.0191096 0.318247
17 1 0.5 0.51911 0.318247
35 1 1.54604e-16 0.750502 0.320885
12 1 6.873e-17 0.40261 0.36816
19 1 0.5 0.285921 0.419977
36 1 2.27648e-16 0.133988 0.375313
44 1 0.5 0.0172629 0.428093
40 1 1 0.517263 0.428093
43 1 0.5 0.633988 0.375313
15 1 1 0.785921 0.419977
18 1 0.5 0.90261 0.36816
45 1 0.5 0.40099 0.480014
42 1 0 0.28249 0.533351
16 1 0 0.169469 0.471486
22 1 0.5 0.0527532 0.524461
20 1 1 0.552753 0.524461
24 1 0.5 0.669469 0.471486
47 1 0.5 0.78249 0.533351
41 1 9.31234e-17 0.90099 0.480014
23 1 0.5 0.445857 0.573126
48 1 0.5 0.176717 0.58181
46 1 0 0.676717 0.58181
21 1 0 0.945857 0.573126
