ITEM: TIMESTEP
135
ITEM: NUMBER OF ATOMS
192
ITEM: BOX BOUNDS pp pp pp
0.0000000000000000e+00 7.1176886540000002e+00
0.0000000000000000e+00 2.5858194780409800e+01
0.0000000000000000e+00 4.8301037599330101e+01
ITEM: ATOMS id type xs ys zs
1 1 0 0.121395 0
7 1 0.25 0.0650943 0.0443892
49 1 0.5 0.121395 0
55 1 0.75 0.0650943 0.0443892
2 1 3.36001e-17 0.315094 0.0443892
26 1 0 0.179996 0.0545003
28 1 0.25 0.236825 0.00919034
50 1 0.5 0.315094 0.0443892
74 1 0.5 0.179996 0.0545003
76 1 0.75 0.236825 0.00919034
3 1 0.25 0.371395 0
25 1 0 0.486825 0.00919034
29 1 0.25 0.429996 0.0545003
51 1 0.75 0.371395 0
73 1 0.5 0.486825 0.00919034
77 1 0.75 0.429996 0.0545003
97 1 0 0.621395 0
103 1 0.25 0.565094 0.0443892
145 1 0.5 0.621395 0
151 1 0.75 0.565094 0.0443892
98 1 3.56679e-17 0.815094 0.0443892
122 1 4.00817e-17 0.679996 0.0545003
124 1 0.25 0.736825 0.00919034
146 1 0.5 0.815094 0.0443892
170 1 0.5 0.679996 0.0545003
172 1 0.75 0.736825 0.00919034
99 1 0.25 0.871395 0
121 1 0 0.986825 0.00919034
125 1 0.25 0.929996 0.0545003
147 1 0.75 0.871395 0
169 1 0.5 0.986825 0.00919034
173 1 0.75 0.929996 0.0545003
4 1 0 0.00715404 0.0902731
33 1 0.25 0.122177 0.10133
52 1 0.5 0.00715404 0.0902731
81 1 0.75 0.122177 0.10133
30 1 3.41948e-17 0.0646243 0.147726
78 1 0.5 0.0646243 0.147726
5 1 1 0.199689 0.136699
8 1 0.25 0.257154 0.0902731
53 1 0.5 0.199689 0.136699
56 1 0.75 0.257154 0.0902731
34 1 0.25 0.314624 0.147726
82 1 0.75 0.314624 0.147726
9 1 0.25 0.449689 0.136699
27 1 0 0.372177 0.10133
57 1 0.75 0.449689 0.136699
75 1 0.5 0.372177 0.10133
100 1 1.04306e-17 0.507154 0.0902731
129 1 0.25 0.622177 0.10133
148 1 0.5 0.507154 0.0902731
177 1 0.75 0.622177 0.10133
126 1 0 0.564624 0.147726
174 1 0.5 0.564624 0.147726
101 1 0 0.699689 0.136699
104 1 0.25 0.757154 0.0902731
149 1 0.5 0.699689 0.136699
152 1 0.75 0.757154 0.0902731
130 1 0.25 0.814624 0.147726
178 1 0.75 0.814624 0.147726
105 1 0.25 0.949689 0.136699
123 1 1.74769e-17 0.872177 0.10133
153 1 0.75 0.949689 0.136699
171 1 0.5 0.872177 0.10133
13 1 0.25 0.142091 0.183461
37 1 0.25 0.00705467 0.193683
61 1 0.75 0.142091 0.183461
85 1 0.75 0.00705467 0.193683
10 1 0 0.0845159 0.229023
58 1 0.5 0.0845159 0.229023
31 1 4.88341e-17 0.257055 0.193683
79 1 0.5 0.257055 0.193683
38 1 0.25 0.199479 0.237931
86 1 0.75 0.199479 0.237931
6 1 0 0.392091 0.183461
54 1 0.5 0.392091 0.183461
14 1 0.25 0.334516 0.229023
32 1 0 0.449479 0.237931
62 1 0.75 0.334516 0.229023
80 1 0.5 0.449479 0.237931
109 1 0.25 0.642091 0.183461
133 1 0.25 0.507055 0.193683
157 1 0.75 0.642091 0.183461
181 1 0.75 0.507055 0.193683
106 1 0 0.584516 0.229023
154 1 0.5 0.584516 0.229023
127 1 4.16389e-17 0.757055 0.193683
175 1 0.5 0.757055 0.193683
134 1 0.25 0.699479 0.237931
182 1 0.75 0.699479 0.237931
102 1 7.3366e-17 0.892091 0.183461
150 1 0.5 0.892091 0.183461
110 1 0.25 0.834516 0.229023
128 1 1 0.949479 0.237931
158 1 0.75 0.834516 0.229023
176 1 0.5 0.949479 0.237931
17 1 0.25 0.160274 0.37776
65 1 0.75 0.160274 0.37776
135 1 0.25 0.025237 0.386667
183 1 0.75 0.025237 0.386667
35 1 1.82552e-17 0.275237 0.386667
83 1 0.5 0.275237 0.386667
11 1 6.52908e-18 0.410274 0.37776
59 1 0.5 0.410274 0.37776
39 1 0.25 0.525237 0.386667
87 1 0.75 0.525237 0.386667
113 1 0.25 0.660274 0.37776
161 1 0.75 0.660274 0.37776
131 1 0 0.775237 0.386667
179 1 0.5 0.775237 0.386667
107 1 0 0.910274 0.37776
155 1 0.5 0.910274 0.37776
108 1 0 0.102698 0.422007
156 1 0.5 0.102698 0.422007
40 1 1 0.160064 0.478991
88 1 0.5 0.160064 0.478991
115 1 0.25 0.0451286 0.467965
163 1 0.75 0.0451286 0.467965
43 1 0.25 0.217662 0.432229
91 1 0.75 0.217662 0.432229
15 1 0 0.295129 0.467965
63 1 0.5 0.295129 0.467965
18 1 0.25 0.352698 0.422007
66 1 0.75 0.352698 0.422007
36 1 0 0.467662 0.432229
84 1 0.5 0.467662 0.432229
44 1 0.25 0.410064 0.478991
92 1 0.75 0.410064 0.478991
19 1 0.25 0.545129 0.467965
67 1 0.75 0.545129 0.467965
12 1 4.76406e-18 0.602698 0.422007
60 1 0.5 0.602698 0.422007
136 1 2.57553e-17 0.660064 0.478991
184 1 0.5 0.660064 0.478991
139 1 0.25 0.717662 0.432229
187 1 0.75 0.717662 0.432229
111 1 2.62312e-18 0.795129 0.467965
159 1 0.5 0.795129 0.467965
114 1 0.25 0.852698 0.422007
162 1 0.75 0.852698 0.422007
132 1 9.88134e-18 0.967662 0.432229
180 1 0.5 0.967662 0.432229
140 1 0.25 0.910064 0.478991
188 1 0.75 0.910064 0.478991
141 1 0.25 0.102599 0.525417
189 1 0.75 0.102599 0.525417
138 1 5.31328e-18 0.0446589 0.571301
186 1 0.5 0.0446589 0.571301
20 1 3.43753e-17 0.179757 0.56119
68 1 0.5 0.179757 0.56119
24 1 0.25 0.237576 0.514361
72 1 0.75 0.237576 0.514361
47 1 0.25 0.294659 0.571301
95 1 0.75 0.294659 0.571301
41 1 0 0.352599 0.525417
89 1 0.5 0.352599 0.525417
16 1 1.70474e-17 0.487576 0.514361
64 1 0.5 0.487576 0.514361
22 1 0.25 0.429757 0.56119
70 1 0.75 0.429757 0.56119
42 1 2.41617e-17 0.544659 0.571301
90 1 0.5 0.544659 0.571301
45 1 0.25 0.602599 0.525417
93 1 0.75 0.602599 0.525417
116 1 5.55776e-17 0.679757 0.56119
164 1 0.5 0.679757 0.56119
120 1 0.25 0.737576 0.514361
168 1 0.75 0.737576 0.514361
143 1 0.25 0.794659 0.571301
191 1 0.75 0.794659 0.571301
137 1 2.8427e-17 0.852599 0.525417
185 1 0.5 0.852599 0.525417
112 1 0 0.987576 0.514361
160 1 0.5 0.987576 0.514361
118 1 0.25 0.929757 0.56119
166 1 0.75 0.929757 0.56119
119 1 0.25 0.122928 0.6065
167 1 0.75 0.122928 0.6065
46 1 0 0.238358 0.615691
94 1 0.5 0.238358 0.615691
21 1 0 0.372928 0.6065
69 1 0.5 0.372928 0.6065
48 1 0.25 0.488358 0.615691
96 1 0.75 0.488358 0.615691
23 1 0.25 0.622928 0.6065
71 1 0.75 0.622928 0.6065
142 1 0 0.738358 0.615691
190 1 0.5 0.738358 0.615691
117 1 0 0.872928 0.6065
165 1 0.5 0.872928 0.6065
144 1 0.25 0.988358 0.615691
192 1 0.75 0.988358 0.615691
