ITEM: TIMESTEP
102
ITEM: NUMBER OF ATOMS
192
ITEM: BOX BOUNDS pp pp pp
0.0000000000000000e+00 7.1176886540000002e+00
0.0000000000000000e+00 2.5858194780409800e+01
0.0000000000000000e+00 4.8301037599330101e+01
ITEM: ATOMS id type xs ys zs
1 1 0 0.121395 0
7 1 0.25 0.0650943 0.0442789
49 1 0.5 0.121395 0
55 1 0.75 0.0650943 0.0442789
2 1 3.36001e-17 0.315094 0.0442789
26 1 0 0.179996 0.0544344
28 1 0.25 0.236825 0.00919034
50 1 0.5 0.315094 0.0442789
74 1 0.5 0.179996 0.0544344
76 1 0.75 0.236825 0.00919034
3 1 0.25 0.371395 0
25 1 0 0.486825 0.00919034
29 1 0.25 0.429996 0.0544344
51 1 0.75 0.371395 0
73 1 0.5 0.486825 0.00919034
77 1 0.75 0.429996 0.0544344
97 1 0 0.621395 0
103 1 0.25 0.565094 0.0442789
145 1 0.5 0.621395 0
151 1 0.75 0.565094 0.0442789
98 1 3.56679e-17 0.815094 0.0442789
122 1 4.00817e-17 0.679996 0.0544344
124 1 0.25 0.736825 0.00919034
146 1 0.5 0.815094 0.0442789
170 1 0.5 0.679996 0.0544344
172 1 0.75 0.736825 0.00919034
99 1 0.25 0.871395 0
121 1 0 0.986825 0.00919034
125 1 0.25 0.929996 0.0544344
147 1 0.75 0.871395 0
169 1 0.5 0.986825 0.00919034
173 1 0.75 0.929996 0.0544344
4 1 0 0.00715404 0.0899921
33 1 0.25 0.122177 0.101105
52 1 0.5 0.00715404 0.0899921
81 1 0.75 0.122177 0.101105
30 1 3.41948e-17 0.0646243 0.147336
78 1 0.5 0.0646243 0.147336
5 1 1 0.199689 0.136262
8 1 0.25 0.257154 0.0899921
53 1 0.5 0.199689 0.136262
56 1 0.75 0.257154 0.0899921
34 1 0.25 0.314624 0.147336
82 1 0.75 0.314624 0.147336
9 1 0.25 0.449689 0.136262
27 1 0 0.372177 0.101105
57 1 0.75 0.449689 0.136262
75 1 0.5 0.372177 0.101105
100 1 1.04306e-17 0.507154 0.0899921
129 1 0.25 0.622177 0.101105
148 1 0.5 0.507154 0.0899921
177 1 0.75 0.622177 0.101105
126 1 0 0.564624 0.147336
174 1 0.5 0.564624 0.147336
101 1 0 0.699689 0.136262
104 1 0.25 0.757154 0.0899921
149 1 0.5 0.699689 0.136262
152 1 0.75 0.757154 0.0899921
130 1 0.25 0.814624 0.147336
178 1 0.75 0.814624 0.147336
105 1 0.25 0.949689 0.136262
123 1 1.74769e-17 0.872177 0.101105
153 1 0.75 0.949689 0.136262
171 1 0.5 0.872177 0.101105
13 1 0.25 0.142091 0.182862
37 1 0.25 0.00705467 0.193129
61 1 0.75 0.142091 0.182862
85 1 0.75 0.00705467 0.193129
10 1 0 0.0845159 0.228385
58 1 0.5 0.0845159 0.228385
31 1 4.88341e-17 0.257055 0.193129
79 1 0.5 0.257055 0.193129
38 1 0.25 0.199479 0.237251
86 1 0.75 0.199479 0.237251
6 1 0 0.392091 0.182862
54 1 0.5 0.392091 0.182862
14 1 0.25 0.334516 0.228385
32 1 0 0.449479 0.237251
62 1 0.75 0.334516 0.228385
80 1 0.5 0.449479 0.237251
109 1 0.25 0.642091 0.182862
133 1 0.25 0.507055 0.193129
157 1 0.75 0.642091 0.182862
181 1 0.75 0.507055 0.193129
106 1 0 0.584516 0.228385
154 1 0.5 0.584516 0.228385
127 1 4.16389e-17 0.757055 0.193129
175 1 0.5 0.757055 0.193129
134 1 0.25 0.699479 0.237251
182 1 0.75 0.699479 0.237251
102 1 7.3366e-17 0.892091 0.182862
150 1 0.5 0.892091 0.182862
110 1 0.25 0.834516 0.228385
128 1 1 0.949479 0.237251
158 1 0.75 0.834516 0.228385
176 1 0.5 0.949479 0.237251
17 1 0.25 0.110274 0.378439
65 1 0.75 0.110274 0.378439
35 1 1.82552e-17 0.225237 0.387305
83 1 0.5 0.225237 0.387305
11 1 6.52908e-18 0.360274 0.378439
59 1 0.5 0.360274 0.378439
39 1 0.25 0.475237 0.387305
87 1 0.75 0.475237 0.387305
113 1 0.25 0.610274 0.378439
161 1 0.75 0.610274 0.378439
131 1 0 0.725237 0.387305
179 1 0.5 0.725237 0.387305
107 1 0 0.860274 0.378439
155 1 0.5 0.860274 0.378439
135 1 0.25 0.975237 0.387305
183 1 0.75 0.975237 0.387305
108 1 0 0.0526983 0.422562
156 1 0.5 0.0526983 0.422562
40 1 1 0.110064 0.479428
88 1 0.5 0.110064 0.479428
43 1 0.25 0.167662 0.432829
91 1 0.75 0.167662 0.432829
18 1 0.25 0.302698 0.422562
66 1 0.75 0.302698 0.422562
15 1 0 0.245129 0.468355
63 1 0.5 0.245129 0.468355
36 1 0 0.417662 0.432829
84 1 0.5 0.417662 0.432829
44 1 0.25 0.360064 0.479428
92 1 0.75 0.360064 0.479428
19 1 0.25 0.495129 0.468355
67 1 0.75 0.495129 0.468355
12 1 4.76406e-18 0.552698 0.422562
60 1 0.5 0.552698 0.422562
136 1 2.57553e-17 0.610064 0.479428
184 1 0.5 0.610064 0.479428
139 1 0.25 0.667662 0.432829
187 1 0.75 0.667662 0.432829
114 1 0.25 0.802698 0.422562
162 1 0.75 0.802698 0.422562
111 1 2.62312e-18 0.745129 0.468355
159 1 0.5 0.745129 0.468355
132 1 9.88134e-18 0.917662 0.432829
180 1 0.5 0.917662 0.432829
140 1 0.25 0.860064 0.479428
188 1 0.75 0.860064 0.479428
115 1 0.25 0.995129 0.468355
163 1 0.75 0.995129 0.468355
20 1 3.43753e-17 0.129757 0.561256
68 1 0.5 0.129757 0.561256
141 1 0.25 0.0525991 0.525698
189 1 0.75 0.0525991 0.525698
24 1 0.25 0.187576 0.514586
72 1 0.75 0.187576 0.514586
47 1 0.25 0.244659 0.571412
95 1 0.75 0.244659 0.571412
41 1 0 0.302599 0.525698
89 1 0.5 0.302599 0.525698
16 1 1.70474e-17 0.437576 0.514586
64 1 0.5 0.437576 0.514586
22 1 0.25 0.379757 0.561256
70 1 0.75 0.379757 0.561256
42 1 2.41617e-17 0.494659 0.571412
90 1 0.5 0.494659 0.571412
45 1 0.25 0.552599 0.525698
93 1 0.75 0.552599 0.525698
116 1 5.55776e-17 0.629757 0.561256
164 1 0.5 0.629757 0.561256
120 1 0.25 0.687576 0.514586
168 1 0.75 0.687576 0.514586
143 1 0.25 0.744659 0.571412
191 1 0.75 0.744659 0.571412
137 1 2.8427e-17 0.802599 0.525698
185 1 0.5 0.802599 0.525698
112 1 0 0.937576 0.514586
160 1 0.5 0.937576 0.514586
118 1 0.25 0.879757 0.561256
166 1 0.75 0.879757 0.561256
138 1 5.31328e-18 0.994659 0.571412
186 1 0.5 0.994659 0.571412
119 1 0.25 0.0729283 0.6065
167 1 0.75 0.0729283 0.6065
46 1 0 0.188358 0.615691
94 1 0.5 0.188358 0.615691
21 1 0 0.322928 0.6065
69 1 0.5 0.322928 0.6065
48 1 0.25 0.438358 0.615691
96 1 0.75 0.438358 0.615691
23 1 0.25 0.572928 0.6065
71 1 0.75 0.572928 0.6065
142 1 0 0.688358 0.615691
190 1 0.5 0.688358 0.615691
117 1 0 0.822928 0.6065
165 1 0.5 0.822928 0.6065
144 1 0.25 0.938358 0.615691
192 1 0.75 0.938358 0.615691
