ITEM: TIMESTEP
263
ITEM: NUMBER OF ATOMS
48
ITEM: BOX BOUNDS pp pp pp
0.0000000000000000e+00 2.9505999088000001e+00
0.0000000000000000e+00 1.0662213269878100e+01
0.0000000000000000e+00 4.3042699813799999e+01
ITEM: ATOMS id type xs ys zs
1 1 0 0.24279 0
7 1 0.5 0.137017 0.0486569
26 1 0 0.366753 0.0575376
28 1 0.5 0.47365 0.00868461
2 1 8.17206e-17 0.637017 0.0486569
3 1 0.5 0.74279 0
25 1 0 0.97365 0.00868461
29 1 0.5 0.866753 0.0575376
4 1 1 0.0185161 0.102226
5 1 1 0.402243 0.154129
30 1 1.05805e-16 0.133585 0.162598
33 1 0.5 0.250037 0.110713
8 1 0.5 0.518516 0.102226
9 1 0.5 0.902243 0.154129
27 1 1.07665e-16 0.750037 0.110713
34 1 0.5 0.633585 0.162598
10 1 2.22028e-17 0.169003 0.259089
13 1 0.5 0.285518 0.207181
37 1 0.5 0.0168956 0.215075
38 1 0.5 0.400396 0.265607
6 1 2.21384e-17 0.785518 0.207181
14 1 0.5 0.669003 0.259089
31 1 5.75118e-17 0.516896 0.215075
32 1 7.57478e-18 0.900396 0.265607
11 1 1 0.485776 0.316204
35 1 1.54604e-16 0.217169 0.322722
39 1 0.5 0.717169 0.322722
17 1 0.5 0.985776 0.316204
44 1 0.5 0.48393 0.427681
18 1 0.5 0.369277 0.366735
15 1 1 0.252588 0.419212
43 1 0.5 0.100654 0.374629
36 1 2.27648e-16 0.600654 0.374629
19 1 0.5 0.752588 0.419212
12 1 6.873e-17 0.869277 0.366735
40 1 1 0.98393 0.427681
41 1 9.31234e-17 0.367657 0.479584
47 1 0.5 0.249157 0.533154
24 1 0.5 0.136136 0.471098
20 1 1 0.0194198 0.524273
22 1 0.5 0.51942 0.524273
16 1 0 0.636136 0.471098
42 1 0 0.749157 0.533154
45 1 0.5 0.867657 0.479584
21 1 0 0.412523 0.573126
46 1 0 0.143383 0.58181
48 1 0.5 0.643383 0.58181
23 1 0.5 0.912523 0.573126
