ITEM: TIMESTEP
220
ITEM: NUMBER OF ATOMS
48
ITEM: BOX BOUNDS pp pp pp
0.0000000000000000e+00 2.9505999088000001e+00
0.0000000000000000e+00 1.0662213269878100e+01
0.0000000000000000e+00 4.3042699813799999e+01
ITEM: ATOMS id type xs ys zs
1 1 0 0.24279 0
7 1 0.5 0.137017 0.0483615
26 1 0 0.366753 0.0572734
28 1 0.5 0.47365 0.00868461
2 1 8.17206e-17 0.637017 0.0483615
3 1 0.5 0.74279 0
25 1 0 0.97365 0.00868461
29 1 0.5 0.866753 0.0572734
4 1 1 0.0185161 0.10161
5 1 1 0.402243 0.153297
30 1 1.05805e-16 0.133585 0.161637
33 1 0.5 0.250037 0.110141
8 1 0.5 0.518516 0.10161
9 1 0.5 0.902243 0.153297
27 1 1.07665e-16 0.750037 0.110141
34 1 0.5 0.633585 0.161637
10 1 2.22028e-17 0.169003 0.258865
13 1 0.5 0.285518 0.206162
37 1 0.5 0.0168956 0.213264
38 1 0.5 0.400396 0.264448
6 1 2.21384e-17 0.785518 0.206162
14 1 0.5 0.669003 0.258865
31 1 5.75118e-17 0.516896 0.213264
32 1 7.57478e-18 0.900396 0.264448
11 1 1 0.31911 0.317363
35 1 1.54604e-16 0.0505024 0.322945
39 1 0.5 0.550502 0.322945
17 1 0.5 0.81911 0.317363
36 1 2.27648e-16 0.433988 0.375648
44 1 0.5 0.317263 0.428514
18 1 0.5 0.20261 0.368546
15 1 1 0.0859213 0.420173
19 1 0.5 0.585921 0.420173
12 1 6.873e-17 0.70261 0.368546
40 1 1 0.817263 0.428514
43 1 0.5 0.933988 0.375648
16 1 0 0.469469 0.471669
22 1 0.5 0.352753 0.524537
41 1 9.31234e-17 0.20099 0.480201
47 1 0.5 0.0824899 0.533449
42 1 0 0.58249 0.533449
45 1 0.5 0.70099 0.480201
20 1 1 0.852753 0.524537
24 1 0.5 0.969469 0.471669
48 1 0.5 0.476717 0.58181
21 1 0 0.245857 0.573126
23 1 0.5 0.745857 0.573126
46 1 0 0.976717 0.58181
