ITEM: TIMESTEP
189
ITEM: NUMBER OF ATOMS
192
ITEM: BOX BOUNDS pp pp pp
0.0000000000000000e+00 7.1176886540000002e+00
0.0000000000000000e+00 2.5858194780409800e+01
0.0000000000000000e+00 4.8301037599330101e+01
ITEM: ATOMS id type xs ys zs
1 1 0 0.121395 0
7 1 0.25 0.0650943 0.0443262
49 1 0.5 0.121395 0
55 1 0.75 0.0650943 0.0443262
2 1 3.36001e-17 0.315094 0.0443262
26 1 0 0.179996 0.054462
28 1 0.25 0.236825 0.00919034
50 1 0.5 0.315094 0.0443262
74 1 0.5 0.179996 0.054462
76 1 0.75 0.236825 0.00919034
3 1 0.25 0.371395 0
25 1 0 0.486825 0.00919034
29 1 0.25 0.429996 0.054462
51 1 0.75 0.371395 0
73 1 0.5 0.486825 0.00919034
77 1 0.75 0.429996 0.054462
97 1 0 0.621395 0
103 1 0.25 0.565094 0.0443262
145 1 0.5 0.621395 0
151 1 0.75 0.565094 0.0443262
98 1 3.56679e-17 0.815094 0.0443262
122 1 4.00817e-17 0.679996 0.054462
124 1 0.25 0.736825 0.00919034
146 1 0.5 0.815094 0.0443262
170 1 0.5 0.679996 0.054462
172 1 0.75 0.736825 0.00919034
99 1 0.25 0.871395 0
121 1 0 0.986825 0.00919034
125 1 0.25 0.929996 0.054462
147 1 0.75 0.871395 0
169 1 0.5 0.986825 0.00919034
173 1 0.75 0.929996 0.054462
4 1 0 0.00715404 0.0901137
33 1 0.25 0.122177 0.101201
52 1 0.5 0.00715404 0.0901137
81 1 0.75 0.122177 0.101201
30 1 3.41948e-17 0.0646243 0.147505
78 1 0.5 0.0646243 0.147505
5 1 1 0.199689 0.136452
8 1 0.25 0.257154 0.0901137
53 1 0.5 0.199689 0.136452
56 1 0.75 0.257154 0.0901137
34 1 0.25 0.314624 0.147505
82 1 0.75 0.314624 0.147505
9 1 0.25 0.449689 0.136452
27 1 0 0.372177 0.101201
57 1 0.75 0.449689 0.136452
75 1 0.5 0.372177 0.101201
100 1 1.04306e-17 0.507154 0.0901137
129 1 0.25 0.622177 0.101201
148 1 0.5 0.507154 0.0901137
177 1 0.75 0.622177 0.101201
126 1 0 0.564624 0.147505
174 1 0.5 0.564624 0.147505
101 1 0 0.699689 0.136452
104 1 0.25 0.757154 0.0901137
149 1 0.5 0.699689 0.136452
152 1 0.75 0.757154 0.0901137
130 1 0.25 0.814624 0.147505
178 1 0.75 0.814624 0.147505
105 1 0.25 0.949689 0.136452
123 1 1.74769e-17 0.872177 0.101201
153 1 0.75 0.949689 0.136452
171 1 0.5 0.872177 0.101201
13 1 0.25 0.142091 0.183122
37 1 0.25 0.00705467 0.193369
61 1 0.75 0.142091 0.183122
85 1 0.75 0.00705467 0.193369
10 1 0 0.0845159 0.228661
58 1 0.5 0.0845159 0.228661
31 1 4.88341e-17 0.257055 0.193369
79 1 0.5 0.257055 0.193369
38 1 0.25 0.199479 0.237544
86 1 0.75 0.199479 0.237544
6 1 0 0.392091 0.183122
54 1 0.5 0.392091 0.183122
14 1 0.25 0.334516 0.228661
32 1 0 0.449479 0.237544
62 1 0.75 0.334516 0.228661
80 1 0.5 0.449479 0.237544
109 1 0.25 0.642091 0.183122
133 1 0.25 0.507055 0.193369
157 1 0.75 0.642091 0.183122
181 1 0.75 0.507055 0.193369
106 1 0 0.584516 0.228661
154 1 0.5 0.584516 0.228661
127 1 4.16389e-17 0.757055 0.193369
175 1 0.5 0.757055 0.193369
134 1 0.25 0.699479 0.237544
182 1 0.75 0.699479 0.237544
102 1 7.3366e-17 0.892091 0.183122
150 1 0.5 0.892091 0.183122
110 1 0.25 0.834516 0.228661
128 1 1 0.949479 0.237544
158 1 0.75 0.834516 0.228661
176 1 0.5 0.949479 0.237544
135 1 0.25 0.125237 0.387029
183 1 0.75 0.125237 0.387029
107 1 0 0.0102743 0.378146
155 1 0.5 0.0102743 0.378146
17 1 0.25 0.260274 0.378146
65 1 0.75 0.260274 0.378146
35 1 1.82552e-17 0.375237 0.387029
83 1 0.5 0.375237 0.387029
11 1 6.52908e-18 0.510274 0.378146
59 1 0.5 0.510274 0.378146
39 1 0.25 0.625237 0.387029
87 1 0.75 0.625237 0.387029
113 1 0.25 0.760274 0.378146
161 1 0.75 0.760274 0.378146
131 1 0 0.875237 0.387029
179 1 0.5 0.875237 0.387029
115 1 0.25 0.145129 0.468186
163 1 0.75 0.145129 0.468186
132 1 9.88134e-18 0.0676618 0.432569
180 1 0.5 0.0676618 0.432569
140 1 0.25 0.0100642 0.479239
188 1 0.75 0.0100642 0.479239
108 1 0 0.202698 0.422322
156 1 0.5 0.202698 0.422322
40 1 1 0.260064 0.479239
88 1 0.5 0.260064 0.479239
43 1 0.25 0.317662 0.432569
91 1 0.75 0.317662 0.432569
15 1 0 0.395129 0.468186
63 1 0.5 0.395129 0.468186
18 1 0.25 0.452698 0.422322
66 1 0.75 0.452698 0.422322
44 1 0.25 0.510064 0.479239
92 1 0.75 0.510064 0.479239
36 1 0 0.567662 0.432569
84 1 0.5 0.567662 0.432569
19 1 0.25 0.645129 0.468186
67 1 0.75 0.645129 0.468186
12 1 4.76406e-18 0.702698 0.422322
60 1 0.5 0.702698 0.422322
136 1 2.57553e-17 0.760064 0.479239
184 1 0.5 0.760064 0.479239
139 1 0.25 0.817662 0.432569
187 1 0.75 0.817662 0.432569
111 1 2.62312e-18 0.895129 0.468186
159 1 0.5 0.895129 0.468186
114 1 0.25 0.952698 0.422322
162 1 0.75 0.952698 0.422322
138 1 5.31328e-18 0.144659 0.571364
186 1 0.5 0.144659 0.571364
112 1 0 0.0875757 0.514489
160 1 0.5 0.0875757 0.514489
118 1 0.25 0.0297573 0.561229
166 1 0.75 0.0297573 0.561229
141 1 0.25 0.202599 0.525577
189 1 0.75 0.202599 0.525577
20 1 3.43753e-17 0.279757 0.561229
68 1 0.5 0.279757 0.561229
24 1 0.25 0.337576 0.514489
72 1 0.75 0.337576 0.514489
47 1 0.25 0.394659 0.571364
95 1 0.75 0.394659 0.571364
41 1 0 0.452599 0.525577
89 1 0.5 0.452599 0.525577
22 1 0.25 0.529757 0.561229
70 1 0.75 0.529757 0.561229
16 1 1.70474e-17 0.587576 0.514489
64 1 0.5 0.587576 0.514489
42 1 2.41617e-17 0.644659 0.571364
90 1 0.5 0.644659 0.571364
45 1 0.25 0.702599 0.525577
93 1 0.75 0.702599 0.525577
116 1 5.55776e-17 0.779757 0.561229
164 1 0.5 0.779757 0.561229
120 1 0.25 0.837576 0.514489
168 1 0.75 0.837576 0.514489
143 1 0.25 0.894659 0.571364
191 1 0.75 0.894659 0.571364
137 1 2.8427e-17 0.952599 0.525577
185 1 0.5 0.952599 0.525577
144 1 0.25 0.0883583 0.615691
192 1 0.75 0.0883583 0.615691
119 1 0.25 0.222928 0.6065
167 1 0.75 0.222928 0.6065
46 1 0 0.338358 0.615691
94 1 0.5 0.338358 0.615691
21 1 0 0.472928 0.6065
69 1 0.5 0.472928 0.6065
48 1 0.25 0.588358 0.615691
96 1 0.75 0.588358 0.615691
23 1 0.25 0.722928 0.6065
71 1 0.75 0.722928 0.6065
142 1 0 0.838358 0.615691
190 1 0.5 0.838358 0.615691
117 1 0 0.972928 0.6065
165 1 0.5 0.972928 0.6065
