ITEM: TIMESTEP
53
ITEM: NUMBER OF ATOMS
192
ITEM: BOX BOUNDS pp pp pp
0.0000000000000000e+00 7.1176886540000002e+00
0.0000000000000000e+00 2.5858194780409800e+01
0.0000000000000000e+00 4.8301037599330101e+01
ITEM: ATOMS id type xs ys zs
1 1 0 0.121395 0
7 1 0.25 0.0650943 0.0533378
49 1 0.5 0.121395 0
55 1 0.75 0.0650943 0.0533378
2 1 3.36001e-17 0.315094 0.0533378
26 1 0 0.179996 0.0627208
28 1 0.25 0.236825 0.00919034
50 1 0.5 0.315094 0.0533378
74 1 0.5 0.179996 0.0627208
76 1 0.75 0.236825 0.00919034
3 1 0.25 0.371395 0
25 1 0 0.486825 0.00919034
29 1 0.25 0.429996 0.0627208
51 1 0.75 0.371395 0
73 1 0.5 0.486825 0.00919034
77 1 0.75 0.429996 0.0627208
97 1 0 0.621395 0
103 1 0.25 0.565094 0.0533378
145 1 0.5 0.621395 0
151 1 0.75 0.565094 0.0533378
98 1 3.56679e-17 0.815094 0.0533378
122 1 4.00817e-17 0.679996 0.0627208
124 1 0.25 0.736825 0.00919034
146 1 0.5 0.815094 0.0533378
170 1 0.5 0.679996 0.0627208
172 1 0.75 0.736825 0.00919034
99 1 0.25 0.871395 0
121 1 0 0.986825 0.00919034
125 1 0.25 0.929996 0.0627208
147 1 0.75 0.871395 0
169 1 0.5 0.986825 0.00919034
173 1 0.75 0.929996 0.0627208
4 1 0 0.00715404 0.107534
33 1 0.25 0.122177 0.11744
52 1 0.5 0.00715404 0.107534
81 1 0.75 0.122177 0.11744
5 1 1 0.199689 0.162059
8 1 0.25 0.257154 0.107534
53 1 0.5 0.199689 0.162059
56 1 0.75 0.257154 0.107534
9 1 0.25 0.449689 0.162059
27 1 0 0.372177 0.11744
57 1 0.75 0.449689 0.162059
75 1 0.5 0.372177 0.11744
100 1 1.04306e-17 0.507154 0.107534
129 1 0.25 0.622177 0.11744
148 1 0.5 0.507154 0.107534
177 1 0.75 0.622177 0.11744
101 1 0 0.699689 0.162059
104 1 0.25 0.757154 0.107534
149 1 0.5 0.699689 0.162059
152 1 0.75 0.757154 0.107534
105 1 0.25 0.949689 0.162059
123 1 1.74769e-17 0.872177 0.11744
153 1 0.75 0.949689 0.162059
171 1 0.5 0.872177 0.11744
13 1 0.25 0.142091 0.216798
30 1 3.41948e-17 0.0646243 0.171905
37 1 0.25 0.00705467 0.22607
61 1 0.75 0.142091 0.216798
78 1 0.5 0.0646243 0.171905
85 1 0.75 0.00705467 0.22607
31 1 4.88341e-17 0.257055 0.22607
34 1 0.25 0.314624 0.171905
79 1 0.5 0.257055 0.22607
82 1 0.75 0.314624 0.171905
6 1 0 0.392091 0.216798
54 1 0.5 0.392091 0.216798
109 1 0.25 0.642091 0.216798
126 1 0 0.564624 0.171905
133 1 0.25 0.507055 0.22607
157 1 0.75 0.642091 0.216798
174 1 0.5 0.564624 0.171905
181 1 0.75 0.507055 0.22607
127 1 4.16389e-17 0.757055 0.22607
130 1 0.25 0.814624 0.171905
175 1 0.5 0.757055 0.22607
178 1 0.75 0.814624 0.171905
102 1 7.3366e-17 0.892091 0.216798
150 1 0.5 0.892091 0.216798
10 1 0 0.0845159 0.27078
58 1 0.5 0.0845159 0.27078
38 1 0.25 0.199479 0.280596
86 1 0.75 0.199479 0.280596
14 1 0.25 0.334516 0.27078
32 1 0 0.449479 0.280596
62 1 0.75 0.334516 0.27078
80 1 0.5 0.449479 0.280596
106 1 0 0.584516 0.27078
154 1 0.5 0.584516 0.27078
134 1 0.25 0.699479 0.280596
182 1 0.75 0.699479 0.280596
110 1 0.25 0.834516 0.27078
128 1 1 0.949479 0.280596
158 1 0.75 0.834516 0.27078
176 1 0.5 0.949479 0.280596
17 1 0.25 0.076941 0.335094
65 1 0.75 0.076941 0.335094
43 1 0.25 0.134329 0.398893
91 1 0.75 0.134329 0.398893
108 1 0 0.0193649 0.38962
156 1 0.5 0.0193649 0.38962
11 1 6.52908e-18 0.326941 0.335094
59 1 0.5 0.326941 0.335094
35 1 1.82552e-17 0.191904 0.344911
83 1 0.5 0.191904 0.344911
18 1 0.25 0.269365 0.38962
66 1 0.75 0.269365 0.38962
36 1 0 0.384329 0.398893
39 1 0.25 0.441904 0.344911
84 1 0.5 0.384329 0.398893
87 1 0.75 0.441904 0.344911
113 1 0.25 0.576941 0.335094
161 1 0.75 0.576941 0.335094
12 1 4.76406e-18 0.519365 0.38962
60 1 0.5 0.519365 0.38962
139 1 0.25 0.634329 0.398893
187 1 0.75 0.634329 0.398893
107 1 0 0.826941 0.335094
155 1 0.5 0.826941 0.335094
131 1 0 0.691904 0.344911
179 1 0.5 0.691904 0.344911
114 1 0.25 0.769365 0.38962
162 1 0.75 0.769365 0.38962
132 1 9.88134e-18 0.884329 0.398893
135 1 0.25 0.941904 0.344911
180 1 0.5 0.884329 0.398893
183 1 0.75 0.941904 0.344911
24 1 0.25 0.154242 0.498251
40 1 1 0.0767309 0.453632
72 1 0.75 0.154242 0.498251
88 1 0.5 0.0767309 0.453632
15 1 0 0.211795 0.443786
63 1 0.5 0.211795 0.443786
44 1 0.25 0.326731 0.453632
92 1 0.75 0.326731 0.453632
16 1 1.70474e-17 0.404242 0.498251
19 1 0.25 0.461795 0.443786
64 1 0.5 0.404242 0.498251
67 1 0.75 0.461795 0.443786
120 1 0.25 0.654242 0.498251
136 1 2.57553e-17 0.576731 0.453632
168 1 0.75 0.654242 0.498251
184 1 0.5 0.576731 0.453632
111 1 2.62312e-18 0.711795 0.443786
159 1 0.5 0.711795 0.443786
140 1 0.25 0.826731 0.453632
188 1 0.75 0.826731 0.453632
112 1 0 0.904242 0.498251
115 1 0.25 0.961795 0.443786
160 1 0.5 0.904242 0.498251
163 1 0.75 0.961795 0.443786
20 1 3.43753e-17 0.096424 0.55297
68 1 0.5 0.096424 0.55297
141 1 0.25 0.0192657 0.508157
189 1 0.75 0.0192657 0.508157
47 1 0.25 0.211326 0.562353
95 1 0.75 0.211326 0.562353
41 1 0 0.269266 0.508157
89 1 0.5 0.269266 0.508157
22 1 0.25 0.346424 0.55297
70 1 0.75 0.346424 0.55297
42 1 2.41617e-17 0.461326 0.562353
90 1 0.5 0.461326 0.562353
45 1 0.25 0.519266 0.508157
93 1 0.75 0.519266 0.508157
116 1 5.55776e-17 0.596424 0.55297
164 1 0.5 0.596424 0.55297
143 1 0.25 0.711326 0.562353
191 1 0.75 0.711326 0.562353
137 1 2.8427e-17 0.769266 0.508157
185 1 0.5 0.769266 0.508157
118 1 0.25 0.846424 0.55297
166 1 0.75 0.846424 0.55297
138 1 5.31328e-18 0.961326 0.562353
186 1 0.5 0.961326 0.562353
46 1 0 0.155025 0.615691
94 1 0.5 0.155025 0.615691
119 1 0.25 0.039595 0.6065
167 1 0.75 0.039595 0.6065
21 1 0 0.289595 0.6065
69 1 0.5 0.289595 0.6065
48 1 0.25 0.405025 0.615691
96 1 0.75 0.405025 0.615691
23 1 0.25 0.539595 0.6065
71 1 0.75 0.539595 0.6065
142 1 0 0.655025 0.615691
190 1 0.5 0.655025 0.615691
117 1 0 0.789595 0.6065
165 1 0.5 0.789595 0.6065
144 1 0.25 0.905025 0.615691
192 1 0.75 0.905025 0.615691
