ITEM: TIMESTEP
292
ITEM: NUMBER OF ATOMS
192
ITEM: BOX BOUNDS pp pp pp
0.0000000000000000e+00 7.1176886540000002e+00
0.0000000000000000e+00 2.5858194780409800e+01
0.0000000000000000e+00 4.8301037599330101e+01
ITEM: ATOMS id type xs ys zs
1 1 0 0.121395 0
7 1 0.25 0.0650943 0.0442964
49 1 0.5 0.121395 0
55 1 0.75 0.0650943 0.0442964
2 1 3.36001e-17 0.315094 0.0442964
26 1 0 0.179996 0.0544445
28 1 0.25 0.236825 0.00919034
50 1 0.5 0.315094 0.0442964
74 1 0.5 0.179996 0.0544445
76 1 0.75 0.236825 0.00919034
3 1 0.25 0.371395 0
25 1 0 0.486825 0.00919034
29 1 0.25 0.429996 0.0544445
51 1 0.75 0.371395 0
73 1 0.5 0.486825 0.00919034
77 1 0.75 0.429996 0.0544445
97 1 0 0.621395 0
103 1 0.25 0.565094 0.0442964
145 1 0.5 0.621395 0
151 1 0.75 0.565094 0.0442964
98 1 3.56679e-17 0.815094 0.0442964
122 1 4.00817e-17 0.679996 0.0544445
124 1 0.25 0.736825 0.00919034
146 1 0.5 0.815094 0.0442964
170 1 0.5 0.679996 0.0544445
172 1 0.75 0.736825 0.00919034
99 1 0.25 0.871395 0
121 1 0 0.986825 0.00919034
125 1 0.25 0.929996 0.0544445
147 1 0.75 0.871395 0
169 1 0.5 0.986825 0.00919034
173 1 0.75 0.929996 0.0544445
4 1 0 0.00715404 0.0900372
33 1 0.25 0.122177 0.10114
52 1 0.5 0.00715404 0.0900372
81 1 0.75 0.122177 0.10114
30 1 3.41948e-17 0.0646243 0.147398
78 1 0.5 0.0646243 0.147398
5 1 1 0.199689 0.136333
8 1 0.25 0.257154 0.0900372
53 1 0.5 0.199689 0.136333
56 1 0.75 0.257154 0.0900372
34 1 0.25 0.314624 0.147398
82 1 0.75 0.314624 0.147398
9 1 0.25 0.449689 0.136333
27 1 0 0.372177 0.10114
57 1 0.75 0.449689 0.136333
75 1 0.5 0.372177 0.10114
100 1 1.04306e-17 0.507154 0.0900372
129 1 0.25 0.622177 0.10114
148 1 0.5 0.507154 0.0900372
177 1 0.75 0.622177 0.10114
126 1 0 0.564624 0.147398
174 1 0.5 0.564624 0.147398
101 1 0 0.699689 0.136333
104 1 0.25 0.757154 0.0900372
149 1 0.5 0.699689 0.136333
152 1 0.75 0.757154 0.0900372
130 1 0.25 0.814624 0.147398
178 1 0.75 0.814624 0.147398
105 1 0.25 0.949689 0.136333
123 1 1.74769e-17 0.872177 0.10114
153 1 0.75 0.949689 0.136333
171 1 0.5 0.872177 0.10114
13 1 0.25 0.142091 0.182958
37 1 0.25 0.00705467 0.193218
61 1 0.75 0.142091 0.182958
85 1 0.75 0.00705467 0.193218
10 1 0 0.0845159 0.228488
58 1 0.5 0.0845159 0.228488
31 1 4.88341e-17 0.257055 0.193218
79 1 0.5 0.257055 0.193218
38 1 0.25 0.199479 0.237358
86 1 0.75 0.199479 0.237358
6 1 0 0.392091 0.182958
54 1 0.5 0.392091 0.182958
14 1 0.25 0.334516 0.228488
32 1 0 0.449479 0.237358
62 1 0.75 0.334516 0.228488
80 1 0.5 0.449479 0.237358
109 1 0.25 0.642091 0.182958
133 1 0.25 0.507055 0.193218
157 1 0.75 0.642091 0.182958
181 1 0.75 0.507055 0.193218
106 1 0 0.584516 0.228488
154 1 0.5 0.584516 0.228488
127 1 4.16389e-17 0.757055 0.193218
175 1 0.5 0.757055 0.193218
134 1 0.25 0.699479 0.237358
182 1 0.75 0.699479 0.237358
102 1 7.3366e-17 0.892091 0.182958
150 1 0.5 0.892091 0.182958
110 1 0.25 0.834516 0.228488
128 1 1 0.949479 0.237358
158 1 0.75 0.834516 0.228488
176 1 0.5 0.949479 0.237358
131 1 0 0.10857 0.387203
179 1 0.5 0.10857 0.387203
107 1 0 0.243608 0.378332
155 1 0.5 0.243608 0.378332
135 1 0.25 0.35857 0.387203
183 1 0.75 0.35857 0.387203
17 1 0.25 0.493608 0.378332
65 1 0.75 0.493608 0.378332
35 1 1.82552e-17 0.60857 0.387203
83 1 0.5 0.60857 0.387203
11 1 6.52908e-18 0.743608 0.378332
59 1 0.5 0.743608 0.378332
39 1 0.25 0.85857 0.387203
87 1 0.75 0.85857 0.387203
113 1 0.25 0.993608 0.378332
161 1 0.75 0.993608 0.378332
111 1 2.62312e-18 0.128462 0.468292
159 1 0.5 0.128462 0.468292
139 1 0.25 0.0509952 0.432733
187 1 0.75 0.0509952 0.432733
114 1 0.25 0.186032 0.422473
162 1 0.75 0.186032 0.422473
140 1 0.25 0.243398 0.479358
188 1 0.75 0.243398 0.479358
132 1 9.88134e-18 0.300995 0.432733
180 1 0.5 0.300995 0.432733
115 1 0.25 0.378462 0.468292
163 1 0.75 0.378462 0.468292
108 1 0 0.436032 0.422473
156 1 0.5 0.436032 0.422473
40 1 1 0.493398 0.479358
88 1 0.5 0.493398 0.479358
43 1 0.25 0.550995 0.432733
91 1 0.75 0.550995 0.432733
15 1 0 0.628462 0.468292
63 1 0.5 0.628462 0.468292
18 1 0.25 0.686032 0.422473
66 1 0.75 0.686032 0.422473
44 1 0.25 0.743398 0.479358
92 1 0.75 0.743398 0.479358
36 1 0 0.800995 0.432733
84 1 0.5 0.800995 0.432733
19 1 0.25 0.878462 0.468292
67 1 0.75 0.878462 0.468292
12 1 4.76406e-18 0.936032 0.422473
60 1 0.5 0.936032 0.422473
136 1 2.57553e-17 0.993398 0.479358
184 1 0.5 0.993398 0.479358
143 1 0.25 0.127992 0.571394
191 1 0.75 0.127992 0.571394
120 1 0.25 0.0709091 0.51455
168 1 0.75 0.0709091 0.51455
116 1 5.55776e-17 0.0130906 0.561246
164 1 0.5 0.0130906 0.561246
137 1 2.8427e-17 0.185932 0.525653
185 1 0.5 0.185932 0.525653
118 1 0.25 0.263091 0.561246
166 1 0.75 0.263091 0.561246
112 1 0 0.320909 0.51455
160 1 0.5 0.320909 0.51455
138 1 5.31328e-18 0.377992 0.571394
186 1 0.5 0.377992 0.571394
141 1 0.25 0.435932 0.525653
189 1 0.75 0.435932 0.525653
20 1 3.43753e-17 0.513091 0.561246
68 1 0.5 0.513091 0.561246
24 1 0.25 0.570909 0.51455
72 1 0.75 0.570909 0.51455
47 1 0.25 0.627992 0.571394
95 1 0.75 0.627992 0.571394
41 1 0 0.685932 0.525653
89 1 0.5 0.685932 0.525653
22 1 0.25 0.763091 0.561246
70 1 0.75 0.763091 0.561246
16 1 1.70474e-17 0.820909 0.51455
64 1 0.5 0.820909 0.51455
42 1 2.41617e-17 0.877992 0.571394
90 1 0.5 0.877992 0.571394
45 1 0.25 0.935932 0.525653
93 1 0.75 0.935932 0.525653
142 1 0 0.0716917 0.615691
190 1 0.5 0.0716917 0.615691
117 1 0 0.206262 0.6065
165 1 0.5 0.206262 0.6065
144 1 0.25 0.321692 0.615691
192 1 0.75 0.321692 0.615691
119 1 0.25 0.456262 0.6065
167 1 0.75 0.456262 0.6065
46 1 0 0.571692 0.615691
94 1 0.5 0.571692 0.615691
21 1 0 0.706262 0.6065
69 1 0.5 0.706262 0.6065
48 1 0.25 0.821692 0.615691
96 1 0.75 0.821692 0.615691
23 1 0.25 0.956262 0.6065
71 1 0.75 0.956262 0.6065
