ITEM: TIMESTEP
310
ITEM: NUMBER OF ATOMS
192
ITEM: BOX BOUNDS pp pp pp
0.0000000000000000e+00 7.1176886540000002e+00
0.0000000000000000e+00 2.5858194780409800e+01
0.0000000000000000e+00 4.8301037599330101e+01
ITEM: ATOMS id type xs ys zs
1 1 0 0.121395 0
7 1 0.25 0.0650943 0.044275
49 1 0.5 0.121395 0
55 1 0.75 0.0650943 0.044275
2 1 3.36001e-17 0.315094 0.044275
26 1 0 0.179996 0.054432
28 1 0.25 0.236825 0.00919034
50 1 0.5 0.315094 0.044275
74 1 0.5 0.179996 0.054432
76 1 0.75 0.236825 0.00919034
3 1 0.25 0.371395 0
25 1 0 0.486825 0.00919034
29 1 0.25 0.429996 0.054432
51 1 0.75 0.371395 0
73 1 0.5 0.486825 0.00919034
77 1 0.75 0.429996 0.054432
97 1 0 0.621395 0
103 1 0.25 0.565094 0.044275
145 1 0.5 0.621395 0
151 1 0.75 0.565094 0.044275
98 1 3.56679e-17 0.815094 0.044275
122 1 4.00817e-17 0.679996 0.054432
124 1 0.25 0.736825 0.00919034
146 1 0.5 0.815094 0.044275
170 1 0.5 0.679996 0.054432
172 1 0.75 0.736825 0.00919034
99 1 0.25 0.871395 0
121 1 0 0.986825 0.00919034
125 1 0.25 0.929996 0.054432
147 1 0.75 0.871395 0
169 1 0.5 0.986825 0.00919034
173 1 0.75 0.929996 0.054432
4 1 0 0.00715404 0.0899817
33 1 0.25 0.122177 0.101096
52 1 0.5 0.00715404 0.0899817
81 1 0.75 0.122177 0.101096
30 1 3.41948e-17 0.0646243 0.147321
78 1 0.5 0.0646243 0.147321
5 1 1 0.199689 0.136246
8 1 0.25 0.257154 0.0899817
53 1 0.5 0.199689 0.136246
56 1 0.75 0.257154 0.0899817
34 1 0.25 0.314624 0.147321
82 1 0.75 0.314624 0.147321
9 1 0.25 0.449689 0.136246
27 1 0 0.372177 0.101096
57 1 0.75 0.449689 0.136246
75 1 0.5 0.372177 0.101096
100 1 1.04306e-17 0.507154 0.0899817
129 1 0.25 0.622177 0.101096
148 1 0.5 0.507154 0.0899817
177 1 0.75 0.622177 0.101096
126 1 0 0.564624 0.147321
174 1 0.5 0.564624 0.147321
101 1 0 0.699689 0.136246
104 1 0.25 0.757154 0.0899817
149 1 0.5 0.699689 0.136246
152 1 0.75 0.757154 0.0899817
130 1 0.25 0.814624 0.147321
178 1 0.75 0.814624 0.147321
105 1 0.25 0.949689 0.136246
123 1 1.74769e-17 0.872177 0.101096
153 1 0.75 0.949689 0.136246
171 1 0.5 0.872177 0.101096
13 1 0.25 0.142091 0.182839
37 1 0.25 0.00705467 0.193107
61 1 0.75 0.142091 0.182839
85 1 0.75 0.00705467 0.193107
10 1 0 0.0845159 0.228361
58 1 0.5 0.0845159 0.228361
31 1 4.88341e-17 0.257055 0.193107
79 1 0.5 0.257055 0.193107
38 1 0.25 0.199479 0.237225
86 1 0.75 0.199479 0.237225
6 1 0 0.392091 0.182839
54 1 0.5 0.392091 0.182839
14 1 0.25 0.334516 0.228361
32 1 0 0.449479 0.237225
62 1 0.75 0.334516 0.228361
80 1 0.5 0.449479 0.237225
109 1 0.25 0.642091 0.182839
133 1 0.25 0.507055 0.193107
157 1 0.75 0.642091 0.182839
181 1 0.75 0.507055 0.193107
106 1 0 0.584516 0.228361
154 1 0.5 0.584516 0.228361
127 1 4.16389e-17 0.757055 0.193107
175 1 0.5 0.757055 0.193107
134 1 0.25 0.699479 0.237225
182 1 0.75 0.699479 0.237225
102 1 7.3366e-17 0.892091 0.182839
150 1 0.5 0.892091 0.182839
110 1 0.25 0.834516 0.228361
128 1 1 0.949479 0.237225
158 1 0.75 0.834516 0.228361
176 1 0.5 0.949479 0.237225
131 1 0 0.141904 0.387329
179 1 0.5 0.141904 0.387329
113 1 0.25 0.026941 0.378465
161 1 0.75 0.026941 0.378465
107 1 0 0.276941 0.378465
155 1 0.5 0.276941 0.378465
135 1 0.25 0.391904 0.387329
183 1 0.75 0.391904 0.387329
17 1 0.25 0.526941 0.378465
65 1 0.75 0.526941 0.378465
35 1 1.82552e-17 0.641904 0.387329
83 1 0.5 0.641904 0.387329
11 1 6.52908e-18 0.776941 0.378465
59 1 0.5 0.776941 0.378465
39 1 0.25 0.891904 0.387329
87 1 0.75 0.891904 0.387329
111 1 2.62312e-18 0.161795 0.46837
159 1 0.5 0.161795 0.46837
139 1 0.25 0.0843285 0.432852
187 1 0.75 0.0843285 0.432852
136 1 2.57553e-17 0.0267309 0.479445
184 1 0.5 0.0267309 0.479445
114 1 0.25 0.219365 0.422583
162 1 0.75 0.219365 0.422583
140 1 0.25 0.276731 0.479445
188 1 0.75 0.276731 0.479445
132 1 9.88134e-18 0.334329 0.432852
180 1 0.5 0.334329 0.432852
115 1 0.25 0.411795 0.46837
163 1 0.75 0.411795 0.46837
108 1 0 0.469365 0.422583
156 1 0.5 0.469365 0.422583
40 1 1 0.526731 0.479445
88 1 0.5 0.526731 0.479445
43 1 0.25 0.584329 0.432852
91 1 0.75 0.584329 0.432852
15 1 0 0.661795 0.46837
63 1 0.5 0.661795 0.46837
18 1 0.25 0.719365 0.422583
66 1 0.75 0.719365 0.422583
44 1 0.25 0.776731 0.479445
92 1 0.75 0.776731 0.479445
36 1 0 0.834329 0.432852
84 1 0.5 0.834329 0.432852
19 1 0.25 0.911795 0.46837
67 1 0.75 0.911795 0.46837
12 1 4.76406e-18 0.969365 0.422583
60 1 0.5 0.969365 0.422583
143 1 0.25 0.161326 0.571416
191 1 0.75 0.161326 0.571416
120 1 0.25 0.104242 0.514594
168 1 0.75 0.104242 0.514594
116 1 5.55776e-17 0.046424 0.561259
164 1 0.5 0.046424 0.561259
137 1 2.8427e-17 0.219266 0.525709
185 1 0.5 0.219266 0.525709
118 1 0.25 0.296424 0.561259
166 1 0.75 0.296424 0.561259
112 1 0 0.354242 0.514594
160 1 0.5 0.354242 0.514594
138 1 5.31328e-18 0.411326 0.571416
186 1 0.5 0.411326 0.571416
141 1 0.25 0.469266 0.525709
189 1 0.75 0.469266 0.525709
20 1 3.43753e-17 0.546424 0.561259
68 1 0.5 0.546424 0.561259
24 1 0.25 0.604242 0.514594
72 1 0.75 0.604242 0.514594
47 1 0.25 0.661326 0.571416
95 1 0.75 0.661326 0.571416
41 1 0 0.719266 0.525709
89 1 0.5 0.719266 0.525709
22 1 0.25 0.796424 0.561259
70 1 0.75 0.796424 0.561259
16 1 1.70474e-17 0.854242 0.514594
64 1 0.5 0.854242 0.514594
42 1 2.41617e-17 0.911326 0.571416
90 1 0.5 0.911326 0.571416
45 1 0.25 0.969266 0.525709
93 1 0.75 0.969266 0.525709
142 1 0 0.105025 0.615691
190 1 0.5 0.105025 0.615691
117 1 0 0.239595 0.6065
165 1 0.5 0.239595 0.6065
144 1 0.25 0.355025 0.615691
192 1 0.75 0.355025 0.615691
119 1 0.25 0.489595 0.6065
167 1 0.75 0.489595 0.6065
46 1 0 0.605025 0.615691
94 1 0.5 0.605025 0.615691
21 1 0 0.739595 0.6065
69 1 0.5 0.739595 0.6065
48 1 0.25 0.855025 0.615691
96 1 0.75 0.855025 0.615691
23 1 0.25 0.989595 0.6065
71 1 0.75 0.989595 0.6065
