ITEM: TIMESTEP
210
ITEM: NUMBER OF ATOMS
192
ITEM: BOX BOUNDS pp pp pp
0.0000000000000000e+00 7.1176886540000002e+00
0.0000000000000000e+00 2.5858194780409800e+01
0.0000000000000000e+00 4.8301037599330101e+01
ITEM: ATOMS id type xs ys zs
1 1 0 0.121395 0
7 1 0.25 0.0650943 0.0442726
49 1 0.5 0.121395 0
55 1 0.75 0.0650943 0.0442726
2 1 3.36001e-17 0.315094 0.0442726
26 1 0 0.179996 0.0544307
28 1 0.25 0.236825 0.00919034
50 1 0.5 0.315094 0.0442726
74 1 0.5 0.179996 0.0544307
76 1 0.75 0.236825 0.00919034
3 1 0.25 0.371395 0
25 1 0 0.486825 0.00919034
29 1 0.25 0.429996 0.0544307
51 1 0.75 0.371395 0
73 1 0.5 0.486825 0.00919034
77 1 0.75 0.429996 0.0544307
97 1 0 0.621395 0
103 1 0.25 0.565094 0.0442726
145 1 0.5 0.621395 0
151 1 0.75 0.565094 0.0442726
98 1 3.56679e-17 0.815094 0.0442726
122 1 4.00817e-17 0.679996 0.0544307
124 1 0.25 0.736825 0.00919034
146 1 0.5 0.815094 0.0442726
170 1 0.5 0.679996 0.0544307
172 1 0.75 0.736825 0.00919034
99 1 0.25 0.871395 0
121 1 0 0.986825 0.00919034
125 1 0.25 0.929996 0.0544307
147 1 0.75 0.871395 0
169 1 0.5 0.986825 0.00919034
173 1 0.75 0.929996 0.0544307
4 1 0 0.00715404 0.0899755
33 1 0.25 0.122177 0.101092
52 1 0.5 0.00715404 0.0899755
81 1 0.75 0.122177 0.101092
30 1 3.41948e-17 0.0646243 0.147313
78 1 0.5 0.0646243 0.147313
5 1 1 0.199689 0.136236
8 1 0.25 0.257154 0.0899755
53 1 0.5 0.199689 0.136236
56 1 0.75 0.257154 0.0899755
34 1 0.25 0.314624 0.147313
82 1 0.75 0.314624 0.147313
9 1 0.25 0.449689 0.136236
27 1 0 0.372177 0.101092
57 1 0.75 0.449689 0.136236
75 1 0.5 0.372177 0.101092
100 1 1.04306e-17 0.507154 0.0899755
129 1 0.25 0.622177 0.101092
148 1 0.5 0.507154 0.0899755
177 1 0.75 0.622177 0.101092
126 1 0 0.564624 0.147313
174 1 0.5 0.564624 0.147313
101 1 0 0.699689 0.136236
104 1 0.25 0.757154 0.0899755
149 1 0.5 0.699689 0.136236
152 1 0.75 0.757154 0.0899755
130 1 0.25 0.814624 0.147313
178 1 0.75 0.814624 0.147313
105 1 0.25 0.949689 0.136236
123 1 1.74769e-17 0.872177 0.101092
153 1 0.75 0.949689 0.136236
171 1 0.5 0.872177 0.101092
13 1 0.25 0.142091 0.182825
37 1 0.25 0.00705467 0.193096
61 1 0.75 0.142091 0.182825
85 1 0.75 0.00705467 0.193096
10 1 0 0.0845159 0.228344
58 1 0.5 0.0845159 0.228344
31 1 4.88341e-17 0.257055 0.193096
79 1 0.5 0.257055 0.193096
38 1 0.25 0.199479 0.237212
86 1 0.75 0.199479 0.237212
6 1 0 0.392091 0.182825
54 1 0.5 0.392091 0.182825
14 1 0.25 0.334516 0.228344
32 1 0 0.449479 0.237212
62 1 0.75 0.334516 0.228344
80 1 0.5 0.449479 0.237212
109 1 0.25 0.642091 0.182825
133 1 0.25 0.507055 0.193096
157 1 0.75 0.642091 0.182825
181 1 0.75 0.507055 0.193096
106 1 0 0.584516 0.228344
154 1 0.5 0.584516 0.228344
127 1 4.16389e-17 0.757055 0.193096
175 1 0.5 0.757055 0.193096
134 1 0.25 0.699479 0.237212
182 1 0.75 0.699479 0.237212
102 1 7.3366e-17 0.892091 0.182825
150 1 0.5 0.892091 0.182825
110 1 0.25 0.834516 0.228344
128 1 1 0.949479 0.237212
158 1 0.75 0.834516 0.228344
176 1 0.5 0.949479 0.237212
107 1 0 0.0602743 0.378479
155 1 0.5 0.0602743 0.378479
135 1 0.25 0.175237 0.387346
183 1 0.75 0.175237 0.387346
17 1 0.25 0.310274 0.378479
65 1 0.75 0.310274 0.378479
35 1 1.82552e-17 0.425237 0.387346
83 1 0.5 0.425237 0.387346
11 1 6.52908e-18 0.560274 0.378479
59 1 0.5 0.560274 0.378479
39 1 0.25 0.675237 0.387346
87 1 0.75 0.675237 0.387346
113 1 0.25 0.810274 0.378479
161 1 0.75 0.810274 0.378479
131 1 0 0.925237 0.387346
179 1 0.5 0.925237 0.387346
132 1 9.88134e-18 0.117662 0.432865
180 1 0.5 0.117662 0.432865
140 1 0.25 0.0600642 0.479455
188 1 0.75 0.0600642 0.479455
114 1 0.25 0.00269825 0.422595
162 1 0.75 0.00269825 0.422595
115 1 0.25 0.195129 0.468378
163 1 0.75 0.195129 0.468378
108 1 0 0.252698 0.422595
156 1 0.5 0.252698 0.422595
40 1 1 0.310064 0.479455
88 1 0.5 0.310064 0.479455
43 1 0.25 0.367662 0.432865
91 1 0.75 0.367662 0.432865
15 1 0 0.445129 0.468378
63 1 0.5 0.445129 0.468378
18 1 0.25 0.502698 0.422595
66 1 0.75 0.502698 0.422595
44 1 0.25 0.560064 0.479455
92 1 0.75 0.560064 0.479455
36 1 0 0.617662 0.432865
84 1 0.5 0.617662 0.432865
19 1 0.25 0.695129 0.468378
67 1 0.75 0.695129 0.468378
12 1 4.76406e-18 0.752698 0.422595
60 1 0.5 0.752698 0.422595
136 1 2.57553e-17 0.810064 0.479455
184 1 0.5 0.810064 0.479455
139 1 0.25 0.867662 0.432865
187 1 0.75 0.867662 0.432865
111 1 2.62312e-18 0.945129 0.468378
159 1 0.5 0.945129 0.468378
112 1 0 0.137576 0.514599
160 1 0.5 0.137576 0.514599
118 1 0.25 0.0797573 0.56126
166 1 0.75 0.0797573 0.56126
137 1 2.8427e-17 0.00259906 0.525715
185 1 0.5 0.00259906 0.525715
138 1 5.31328e-18 0.194659 0.571418
186 1 0.5 0.194659 0.571418
141 1 0.25 0.252599 0.525715
189 1 0.75 0.252599 0.525715
20 1 3.43753e-17 0.329757 0.56126
68 1 0.5 0.329757 0.56126
24 1 0.25 0.387576 0.514599
72 1 0.75 0.387576 0.514599
47 1 0.25 0.444659 0.571418
95 1 0.75 0.444659 0.571418
41 1 0 0.502599 0.525715
89 1 0.5 0.502599 0.525715
22 1 0.25 0.579757 0.56126
70 1 0.75 0.579757 0.56126
16 1 1.70474e-17 0.637576 0.514599
64 1 0.5 0.637576 0.514599
42 1 2.41617e-17 0.694659 0.571418
90 1 0.5 0.694659 0.571418
45 1 0.25 0.752599 0.525715
93 1 0.75 0.752599 0.525715
116 1 5.55776e-17 0.829757 0.56126
164 1 0.5 0.829757 0.56126
120 1 0.25 0.887576 0.514599
168 1 0.75 0.887576 0.514599
143 1 0.25 0.944659 0.571418
191 1 0.75 0.944659 0.571418
144 1 0.25 0.138358 0.615691
192 1 0.75 0.138358 0.615691
117 1 0 0.0229283 0.6065
165 1 0.5 0.0229283 0.6065
119 1 0.25 0.272928 0.6065
167 1 0.75 0.272928 0.6065
46 1 0 0.388358 0.615691
94 1 0.5 0.388358 0.615691
21 1 0 0.522928 0.6065
69 1 0.5 0.522928 0.6065
48 1 0.25 0.638358 0.615691
96 1 0.75 0.638358 0.615691
23 1 0.25 0.772928 0.6065
71 1 0.75 0.772928 0.6065
142 1 0 0.888358 0.615691
190 1 0.5 0.888358 0.615691
