ITEM: TIMESTEP
225
ITEM: NUMBER OF ATOMS
192
ITEM: BOX BOUNDS pp pp pp
0.0000000000000000e+00 7.1176886540000002e+00
0.0000000000000000e+00 2.5858194780409800e+01
0.0000000000000000e+00 4.8301037599330101e+01
ITEM: ATOMS id type xs ys zs
1 1 0 0.121395 0
7 1 0.25 0.0650943 0.0442727
49 1 0.5 0.121395 0
55 1 0.75 0.0650943 0.0442727
2 1 3.36001e-17 0.315094 0.0442727
26 1 0 0.179996 0.0544307
28 1 0.25 0.236825 0.00919034
50 1 0.5 0.315094 0.0442727
74 1 0.5 0.179996 0.0544307
76 1 0.75 0.236825 0.00919034
3 1 0.25 0.371395 0
25 1 0 0.486825 0.00919034
29 1 0.25 0.429996 0.0544307
51 1 0.75 0.371395 0
73 1 0.5 0.486825 0.00919034
77 1 0.75 0.429996 0.0544307
97 1 0 0.621395 0
103 1 0.25 0.565094 0.0442727
145 1 0.5 0.621395 0
151 1 0.75 0.565094 0.0442727
98 1 3.56679e-17 0.815094 0.0442727
122 1 4.00817e-17 0.679996 0.0544307
124 1 0.25 0.736825 0.00919034
146 1 0.5 0.815094 0.0442727
170 1 0.5 0.679996 0.0544307
172 1 0.75 0.736825 0.00919034
99 1 0.25 0.871395 0
121 1 0 0.986825 0.00919034
125 1 0.25 0.929996 0.0544307
147 1 0.75 0.871395 0
169 1 0.5 0.986825 0.00919034
173 1 0.75 0.929996 0.0544307
4 1 0 0.00715404 0.0899753
33 1 0.25 0.122177 0.101091
52 1 0.5 0.00715404 0.0899753
81 1 0.75 0.122177 0.101091
30 1 3.41948e-17 0.0646243 0.147312
78 1 0.5 0.0646243 0.147312
5 1 1 0.199689 0.136236
8 1 0.25 0.257154 0.0899753
53 1 0.5 0.199689 0.136236
56 1 0.75 0.257154 0.0899753
34 1 0.25 0.314624 0.147312
82 1 0.75 0.314624 0.147312
9 1 0.25 0.449689 0.136236
27 1 0 0.372177 0.101091
57 1 0.75 0.449689 0.136236
75 1 0.5 0.372177 0.101091
100 1 1.04306e-17 0.507154 0.0899753
129 1 0.25 0.622177 0.101091
148 1 0.5 0.507154 0.0899753
177 1 0.75 0.622177 0.101091
126 1 0 0.564624 0.147312
174 1 0.5 0.564624 0.147312
101 1 0 0.699689 0.136236
104 1 0.25 0.757154 0.0899753
149 1 0.5 0.699689 0.136236
152 1 0.75 0.757154 0.0899753
130 1 0.25 0.814624 0.147312
178 1 0.75 0.814624 0.147312
105 1 0.25 0.949689 0.136236
123 1 1.74769e-17 0.872177 0.101091
153 1 0.75 0.949689 0.136236
171 1 0.5 0.872177 0.101091
13 1 0.25 0.142091 0.182824
37 1 0.25 0.00705467 0.193095
61 1 0.75 0.142091 0.182824
85 1 0.75 0.00705467 0.193095
10 1 0 0.0845159 0.228344
58 1 0.5 0.0845159 0.228344
31 1 4.88341e-17 0.257055 0.193095
79 1 0.5 0.257055 0.193095
38 1 0.25 0.199479 0.23721
86 1 0.75 0.199479 0.23721
6 1 0 0.392091 0.182824
54 1 0.5 0.392091 0.182824
14 1 0.25 0.334516 0.228344
32 1 0 0.449479 0.23721
62 1 0.75 0.334516 0.228344
80 1 0.5 0.449479 0.23721
109 1 0.25 0.642091 0.182824
133 1 0.25 0.507055 0.193095
157 1 0.75 0.642091 0.182824
181 1 0.75 0.507055 0.193095
106 1 0 0.584516 0.228344
154 1 0.5 0.584516 0.228344
127 1 4.16389e-17 0.757055 0.193095
175 1 0.5 0.757055 0.193095
134 1 0.25 0.699479 0.23721
182 1 0.75 0.699479 0.23721
102 1 7.3366e-17 0.892091 0.182824
150 1 0.5 0.892091 0.182824
110 1 0.25 0.834516 0.228344
128 1 1 0.949479 0.23721
158 1 0.75 0.834516 0.228344
176 1 0.5 0.949479 0.23721
107 1 0 0.110274 0.37848
155 1 0.5 0.110274 0.37848
135 1 0.25 0.225237 0.387346
183 1 0.75 0.225237 0.387346
17 1 0.25 0.360274 0.37848
65 1 0.75 0.360274 0.37848
35 1 1.82552e-17 0.475237 0.387346
83 1 0.5 0.475237 0.387346
11 1 6.52908e-18 0.610274 0.37848
59 1 0.5 0.610274 0.37848
39 1 0.25 0.725237 0.387346
87 1 0.75 0.725237 0.387346
113 1 0.25 0.860274 0.37848
161 1 0.75 0.860274 0.37848
131 1 0 0.975237 0.387346
179 1 0.5 0.975237 0.387346
140 1 0.25 0.110064 0.479455
188 1 0.75 0.110064 0.479455
114 1 0.25 0.0526983 0.422596
162 1 0.75 0.0526983 0.422596
132 1 9.88134e-18 0.167662 0.432866
180 1 0.5 0.167662 0.432866
115 1 0.25 0.245129 0.468379
163 1 0.75 0.245129 0.468379
108 1 0 0.302698 0.422596
156 1 0.5 0.302698 0.422596
40 1 1 0.360064 0.479455
88 1 0.5 0.360064 0.479455
43 1 0.25 0.417662 0.432866
91 1 0.75 0.417662 0.432866
15 1 0 0.495129 0.468379
63 1 0.5 0.495129 0.468379
18 1 0.25 0.552698 0.422596
66 1 0.75 0.552698 0.422596
44 1 0.25 0.610064 0.479455
92 1 0.75 0.610064 0.479455
36 1 0 0.667662 0.432866
84 1 0.5 0.667662 0.432866
19 1 0.25 0.745129 0.468379
67 1 0.75 0.745129 0.468379
12 1 4.76406e-18 0.802698 0.422596
60 1 0.5 0.802698 0.422596
136 1 2.57553e-17 0.860064 0.479455
184 1 0.5 0.860064 0.479455
139 1 0.25 0.917662 0.432866
187 1 0.75 0.917662 0.432866
111 1 2.62312e-18 0.995129 0.468379
159 1 0.5 0.995129 0.468379
118 1 0.25 0.129757 0.56126
166 1 0.75 0.129757 0.56126
137 1 2.8427e-17 0.0525991 0.525715
185 1 0.5 0.0525991 0.525715
112 1 0 0.187576 0.5146
160 1 0.5 0.187576 0.5146
138 1 5.31328e-18 0.244659 0.571418
186 1 0.5 0.244659 0.571418
141 1 0.25 0.302599 0.525715
189 1 0.75 0.302599 0.525715
20 1 3.43753e-17 0.379757 0.56126
68 1 0.5 0.379757 0.56126
24 1 0.25 0.437576 0.5146
72 1 0.75 0.437576 0.5146
47 1 0.25 0.494659 0.571418
95 1 0.75 0.494659 0.571418
41 1 0 0.552599 0.525715
89 1 0.5 0.552599 0.525715
22 1 0.25 0.629757 0.56126
70 1 0.75 0.629757 0.56126
16 1 1.70474e-17 0.687576 0.5146
64 1 0.5 0.687576 0.5146
42 1 2.41617e-17 0.744659 0.571418
90 1 0.5 0.744659 0.571418
45 1 0.25 0.802599 0.525715
93 1 0.75 0.802599 0.525715
116 1 5.55776e-17 0.879757 0.56126
164 1 0.5 0.879757 0.56126
120 1 0.25 0.937576 0.5146
168 1 0.75 0.937576 0.5146
143 1 0.25 0.994659 0.571418
191 1 0.75 0.994659 0.571418
117 1 0 0.0729283 0.6065
165 1 0.5 0.0729283 0.6065
144 1 0.25 0.188358 0.615691
192 1 0.75 0.188358 0.615691
119 1 0.25 0.322928 0.6065
167 1 0.75 0.322928 0.6065
46 1 0 0.438358 0.615691
94 1 0.5 0.438358 0.615691
21 1 0 0.572928 0.6065
69 1 0.5 0.572928 0.6065
48 1 0.25 0.688358 0.615691
96 1 0.75 0.688358 0.615691
23 1 0.25 0.822928 0.6065
71 1 0.75 0.822928 0.6065
142 1 0 0.938358 0.615691
190 1 0.5 0.938358 0.615691
