ITEM: TIMESTEP
156
ITEM: NUMBER OF ATOMS
192
ITEM: BOX BOUNDS pp pp pp
0.0000000000000000e+00 7.1176886540000002e+00
0.0000000000000000e+00 2.5858194780409800e+01
0.0000000000000000e+00 4.8301037599330101e+01
ITEM: ATOMS id type xs ys zs
1 1 0 0.121395 0
7 1 0.25 0.0650943 0.0444489
49 1 0.5 0.121395 0
55 1 0.75 0.0650943 0.0444489
2 1 3.36001e-17 0.315094 0.0444489
26 1 0 0.179996 0.0545365
28 1 0.25 0.236825 0.00919034
50 1 0.5 0.315094 0.0444489
74 1 0.5 0.179996 0.0545365
76 1 0.75 0.236825 0.00919034
3 1 0.25 0.371395 0
25 1 0 0.486825 0.00919034
29 1 0.25 0.429996 0.0545365
51 1 0.75 0.371395 0
73 1 0.5 0.486825 0.00919034
77 1 0.75 0.429996 0.0545365
97 1 0 0.621395 0
103 1 0.25 0.565094 0.0444489
145 1 0.5 0.621395 0
151 1 0.75 0.565094 0.0444489
98 1 3.56679e-17 0.815094 0.0444489
122 1 4.00817e-17 0.679996 0.0545365
124 1 0.25 0.736825 0.00919034
146 1 0.5 0.815094 0.0444489
170 1 0.5 0.679996 0.0545365
172 1 0.75 0.736825 0.00919034
99 1 0.25 0.871395 0
121 1 0 0.986825 0.00919034
125 1 0.25 0.929996 0.0545365
147 1 0.75 0.871395 0
169 1 0.5 0.986825 0.00919034
173 1 0.75 0.929996 0.0545365
4 1 0 0.00715404 0.0904205
33 1 0.25 0.122177 0.101449
52 1 0.5 0.00715404 0.0904205
81 1 0.75 0.122177 0.101449
30 1 3.41948e-17 0.0646243 0.147928
78 1 0.5 0.0646243 0.147928
5 1 1 0.199689 0.136925
8 1 0.25 0.257154 0.0904205
53 1 0.5 0.199689 0.136925
56 1 0.75 0.257154 0.0904205
34 1 0.25 0.314624 0.147928
82 1 0.75 0.314624 0.147928
9 1 0.25 0.449689 0.136925
27 1 0 0.372177 0.101449
57 1 0.75 0.449689 0.136925
75 1 0.5 0.372177 0.101449
100 1 1.04306e-17 0.507154 0.0904205
129 1 0.25 0.622177 0.101449
148 1 0.5 0.507154 0.0904205
177 1 0.75 0.622177 0.101449
126 1 0 0.564624 0.147928
174 1 0.5 0.564624 0.147928
101 1 0 0.699689 0.136925
104 1 0.25 0.757154 0.0904205
149 1 0.5 0.699689 0.136925
152 1 0.75 0.757154 0.0904205
130 1 0.25 0.814624 0.147928
178 1 0.75 0.814624 0.147928
105 1 0.25 0.949689 0.136925
123 1 1.74769e-17 0.872177 0.101449
153 1 0.75 0.949689 0.136925
171 1 0.5 0.872177 0.101449
13 1 0.25 0.142091 0.183772
37 1 0.25 0.00705467 0.19397
61 1 0.75 0.142091 0.183772
85 1 0.75 0.00705467 0.19397
10 1 0 0.0845159 0.229354
58 1 0.5 0.0845159 0.229354
31 1 4.88341e-17 0.257055 0.19397
79 1 0.5 0.257055 0.19397
38 1 0.25 0.199479 0.238286
86 1 0.75 0.199479 0.238286
6 1 0 0.392091 0.183772
54 1 0.5 0.392091 0.183772
14 1 0.25 0.334516 0.229354
32 1 0 0.449479 0.238286
62 1 0.75 0.334516 0.229354
80 1 0.5 0.449479 0.238286
109 1 0.25 0.642091 0.183772
133 1 0.25 0.507055 0.19397
157 1 0.75 0.642091 0.183772
181 1 0.75 0.507055 0.19397
106 1 0 0.584516 0.229354
154 1 0.5 0.584516 0.229354
127 1 4.16389e-17 0.757055 0.19397
175 1 0.5 0.757055 0.19397
134 1 0.25 0.699479 0.238286
182 1 0.75 0.699479 0.238286
102 1 7.3366e-17 0.892091 0.183772
150 1 0.5 0.892091 0.183772
110 1 0.25 0.834516 0.229354
128 1 1 0.949479 0.238286
158 1 0.75 0.834516 0.229354
176 1 0.5 0.949479 0.238286
135 1 0.25 0.0585704 0.386337
183 1 0.75 0.0585704 0.386337
17 1 0.25 0.193608 0.377404
65 1 0.75 0.193608 0.377404
35 1 1.82552e-17 0.30857 0.386337
83 1 0.5 0.30857 0.386337
11 1 6.52908e-18 0.443608 0.377404
59 1 0.5 0.443608 0.377404
39 1 0.25 0.55857 0.386337
87 1 0.75 0.55857 0.386337
113 1 0.25 0.693608 0.377404
161 1 0.75 0.693608 0.377404
131 1 0 0.80857 0.386337
179 1 0.5 0.80857 0.386337
107 1 0 0.943608 0.377404
155 1 0.5 0.943608 0.377404
108 1 0 0.136032 0.421721
156 1 0.5 0.136032 0.421721
115 1 0.25 0.078462 0.467762
163 1 0.75 0.078462 0.467762
132 1 9.88134e-18 0.000995168 0.431919
180 1 0.5 0.000995168 0.431919
40 1 1 0.193398 0.478765
88 1 0.5 0.193398 0.478765
43 1 0.25 0.250995 0.431919
91 1 0.75 0.250995 0.431919
15 1 0 0.328462 0.467762
63 1 0.5 0.328462 0.467762
18 1 0.25 0.386032 0.421721
66 1 0.75 0.386032 0.421721
44 1 0.25 0.443398 0.478765
92 1 0.75 0.443398 0.478765
36 1 0 0.500995 0.431919
84 1 0.5 0.500995 0.431919
19 1 0.25 0.578462 0.467762
67 1 0.75 0.578462 0.467762
12 1 4.76406e-18 0.636032 0.421721
60 1 0.5 0.636032 0.421721
136 1 2.57553e-17 0.693398 0.478765
184 1 0.5 0.693398 0.478765
139 1 0.25 0.750995 0.431919
187 1 0.75 0.750995 0.431919
111 1 2.62312e-18 0.828462 0.467762
159 1 0.5 0.828462 0.467762
114 1 0.25 0.886032 0.421721
162 1 0.75 0.886032 0.421721
140 1 0.25 0.943398 0.478765
188 1 0.75 0.943398 0.478765
141 1 0.25 0.135932 0.52527
189 1 0.75 0.135932 0.52527
138 1 5.31328e-18 0.0779922 0.571242
186 1 0.5 0.0779922 0.571242
112 1 0 0.0209091 0.514241
160 1 0.5 0.0209091 0.514241
20 1 3.43753e-17 0.213091 0.561154
68 1 0.5 0.213091 0.561154
24 1 0.25 0.270909 0.514241
72 1 0.75 0.270909 0.514241
47 1 0.25 0.327992 0.571242
95 1 0.75 0.327992 0.571242
41 1 0 0.385932 0.52527
89 1 0.5 0.385932 0.52527
22 1 0.25 0.463091 0.561154
70 1 0.75 0.463091 0.561154
16 1 1.70474e-17 0.520909 0.514241
64 1 0.5 0.520909 0.514241
42 1 2.41617e-17 0.577992 0.571242
90 1 0.5 0.577992 0.571242
45 1 0.25 0.635932 0.52527
93 1 0.75 0.635932 0.52527
116 1 5.55776e-17 0.713091 0.561154
164 1 0.5 0.713091 0.561154
120 1 0.25 0.770909 0.514241
168 1 0.75 0.770909 0.514241
143 1 0.25 0.827992 0.571242
191 1 0.75 0.827992 0.571242
137 1 2.8427e-17 0.885932 0.52527
185 1 0.5 0.885932 0.52527
118 1 0.25 0.963091 0.561154
166 1 0.75 0.963091 0.561154
119 1 0.25 0.156262 0.6065
167 1 0.75 0.156262 0.6065
144 1 0.25 0.0216917 0.615691
192 1 0.75 0.0216917 0.615691
46 1 0 0.271692 0.615691
94 1 0.5 0.271692 0.615691
21 1 0 0.406262 0.6065
69 1 0.5 0.406262 0.6065
48 1 0.25 0.521692 0.615691
96 1 0.75 0.521692 0.615691
23 1 0.25 0.656262 0.6065
71 1 0.75 0.656262 0.6065
142 1 0 0.771692 0.615691
190 1 0.5 0.771692 0.615691
117 1 0 0.906262 0.6065
165 1 0.5 0.906262 0.6065
