ITEM: TIMESTEP
41
ITEM: NUMBER OF ATOMS
48
ITEM: BOX BOUNDS pp pp pp
0.0000000000000000e+00 2.9505999088000001e+00
0.0000000000000000e+00 1.0662213269878100e+01
0.0000000000000000e+00 4.3042699813799999e+01
ITEM: ATOMS id type xs ys zs
1 1 0 0.24279 0
7 1 0.5 0.137017 0.0485163
26 1 0 0.366753 0.0574139
28 1 0.5 0.47365 0.00868461
2 1 8.17206e-17 0.637017 0.0485163
3 1 0.5 0.74279 0
25 1 0 0.97365 0.00868461
29 1 0.5 0.866753 0.0574139
4 1 1 0.0185161 0.10193
5 1 1 0.402243 0.153672
30 1 1.05805e-16 0.133585 0.162228
33 1 0.5 0.250037 0.110454
8 1 0.5 0.518516 0.10193
9 1 0.5 0.902243 0.153672
27 1 1.07665e-16 0.750037 0.110454
34 1 0.5 0.633585 0.162228
10 1 2.22028e-17 0.169003 0.257271
13 1 0.5 0.285518 0.20641
37 1 0.5 0.0168956 0.214044
38 1 0.5 0.400396 0.266812
6 1 2.21384e-17 0.785518 0.20641
14 1 0.5 0.669003 0.257271
31 1 5.75118e-17 0.516896 0.214044
32 1 7.57478e-18 0.900396 0.266812
17 1 0.5 0.152443 0.314998
35 1 1.54604e-16 0.383836 0.324539
11 1 1 0.652443 0.314998
39 1 0.5 0.883836 0.324539
15 1 1 0.419255 0.419583
40 1 1 0.150596 0.428138
43 1 0.5 0.267321 0.375401
12 1 6.873e-17 0.0359436 0.367766
18 1 0.5 0.535944 0.367766
19 1 0.5 0.919255 0.419583
36 1 2.27648e-16 0.767321 0.375401
44 1 0.5 0.650596 0.428138
20 1 1 0.186086 0.524397
24 1 0.5 0.302803 0.471356
47 1 0.5 0.415823 0.533294
45 1 0.5 0.0343235 0.479881
41 1 9.31234e-17 0.534323 0.479881
16 1 0 0.802803 0.471356
22 1 0.5 0.686086 0.524397
42 1 0 0.915823 0.533294
46 1 0 0.31005 0.58181
23 1 0.5 0.07919 0.573126
21 1 0 0.57919 0.573126
48 1 0.5 0.81005 0.58181
