ITEM: TIMESTEP
273
ITEM: NUMBER OF ATOMS
48
ITEM: BOX BOUNDS pp pp pp
0.0000000000000000e+00 2.9505999088000001e+00
0.0000000000000000e+00 1.0662213269878100e+01
0.0000000000000000e+00 4.3042699813799999e+01
ITEM: ATOMS id type xs ys zs
1 1 0 0.24279 0
7 1 0.5 0.137017 0.0488927
26 1 0 0.366753 0.0577659
28 1 0.5 0.47365 0.00868461
2 1 8.17206e-17 0.637017 0.0488927
3 1 0.5 0.74279 0
25 1 0 0.97365 0.00868461
29 1 0.5 0.866753 0.0577659
4 1 1 0.0185161 0.102781
5 1 1 0.402243 0.154852
30 1 1.05805e-16 0.133585 0.163353
33 1 0.5 0.250037 0.111191
8 1 0.5 0.518516 0.102781
9 1 0.5 0.902243 0.154852
27 1 1.07665e-16 0.750037 0.111191
34 1 0.5 0.633585 0.163353
10 1 2.22028e-17 0.169003 0.260126
13 1 0.5 0.285518 0.207909
37 1 0.5 0.0168956 0.216046
38 1 0.5 0.400396 0.267374
6 1 2.21384e-17 0.785518 0.207909
14 1 0.5 0.669003 0.260126
31 1 5.75118e-17 0.516896 0.216046
32 1 7.57478e-18 0.900396 0.267374
35 1 1.54604e-16 0.250502 0.321685
17 1 0.5 0.0191096 0.314436
11 1 1 0.51911 0.314436
39 1 0.5 0.750502 0.321685
18 1 0.5 0.40261 0.365764
15 1 1 0.285921 0.418458
43 1 0.5 0.133988 0.373901
40 1 1 0.0172629 0.426959
44 1 0.5 0.517263 0.426959
36 1 2.27648e-16 0.633988 0.373901
19 1 0.5 0.785921 0.418458
12 1 6.873e-17 0.90261 0.365764
41 1 9.31234e-17 0.40099 0.47903
47 1 0.5 0.28249 0.532918
24 1 0.5 0.169469 0.47062
20 1 1 0.0527531 0.524044
22 1 0.5 0.552753 0.524044
16 1 0 0.669469 0.47062
42 1 0 0.78249 0.532918
45 1 0.5 0.90099 0.47903
21 1 0 0.445857 0.573126
46 1 0 0.176717 0.58181
48 1 0.5 0.676717 0.58181
23 1 0.5 0.945857 0.573126
