ITEM: TIMESTEP
178
ITEM: NUMBER OF ATOMS
192
ITEM: BOX BOUNDS pp pp pp
0.0000000000000000e+00 7.1176886540000002e+00
0.0000000000000000e+00 2.5858194780409800e+01
0.0000000000000000e+00 4.8301037599330101e+01
ITEM: ATOMS id type xs ys zs
1 1 0 0.121395 0
7 1 0.25 0.0650943 0.0443796
49 1 0.5 0.121395 0
55 1 0.75 0.0650943 0.0443796
2 1 3.36001e-17 0.315094 0.0443796
26 1 0 0.179996 0.0544937
28 1 0.25 0.236825 0.00919034
50 1 0.5 0.315094 0.0443796
74 1 0.5 0.179996 0.0544937
76 1 0.75 0.236825 0.00919034
3 1 0.25 0.371395 0
25 1 0 0.486825 0.00919034
29 1 0.25 0.429996 0.0544937
51 1 0.75 0.371395 0
73 1 0.5 0.486825 0.00919034
77 1 0.75 0.429996 0.0544937
97 1 0 0.621395 0
103 1 0.25 0.565094 0.0443796
145 1 0.5 0.621395 0
151 1 0.75 0.565094 0.0443796
98 1 3.56679e-17 0.815094 0.0443796
122 1 4.00817e-17 0.679996 0.0544937
124 1 0.25 0.736825 0.00919034
146 1 0.5 0.815094 0.0443796
170 1 0.5 0.679996 0.0544937
172 1 0.75 0.736825 0.00919034
99 1 0.25 0.871395 0
121 1 0 0.986825 0.00919034
125 1 0.25 0.929996 0.0544937
147 1 0.75 0.871395 0
169 1 0.5 0.986825 0.00919034
173 1 0.75 0.929996 0.0544937
4 1 0 0.00715404 0.0902487
33 1 0.25 0.122177 0.10131
52 1 0.5 0.00715404 0.0902487
81 1 0.75 0.122177 0.10131
30 1 3.41948e-17 0.0646243 0.147691
78 1 0.5 0.0646243 0.147691
5 1 1 0.199689 0.136661
8 1 0.25 0.257154 0.0902487
53 1 0.5 0.199689 0.136661
56 1 0.75 0.257154 0.0902487
34 1 0.25 0.314624 0.147691
82 1 0.75 0.314624 0.147691
9 1 0.25 0.449689 0.136661
27 1 0 0.372177 0.10131
57 1 0.75 0.449689 0.136661
75 1 0.5 0.372177 0.10131
100 1 1.04306e-17 0.507154 0.0902487
129 1 0.25 0.622177 0.10131
148 1 0.5 0.507154 0.0902487
177 1 0.75 0.622177 0.10131
126 1 0 0.564624 0.147691
174 1 0.5 0.564624 0.147691
101 1 0 0.699689 0.136661
104 1 0.25 0.757154 0.0902487
149 1 0.5 0.699689 0.136661
152 1 0.75 0.757154 0.0902487
130 1 0.25 0.814624 0.147691
178 1 0.75 0.814624 0.147691
105 1 0.25 0.949689 0.136661
123 1 1.74769e-17 0.872177 0.10131
153 1 0.75 0.949689 0.136661
171 1 0.5 0.872177 0.10131
13 1 0.25 0.142091 0.183408
37 1 0.25 0.00705467 0.193633
61 1 0.75 0.142091 0.183408
85 1 0.75 0.00705467 0.193633
10 1 0 0.0845159 0.228967
58 1 0.5 0.0845159 0.228967
31 1 4.88341e-17 0.257055 0.193633
79 1 0.5 0.257055 0.193633
38 1 0.25 0.199479 0.237868
86 1 0.75 0.199479 0.237868
6 1 0 0.392091 0.183408
54 1 0.5 0.392091 0.183408
14 1 0.25 0.334516 0.228967
32 1 0 0.449479 0.237868
62 1 0.75 0.334516 0.228967
80 1 0.5 0.449479 0.237868
109 1 0.25 0.642091 0.183408
133 1 0.25 0.507055 0.193633
157 1 0.75 0.642091 0.183408
181 1 0.75 0.507055 0.193633
106 1 0 0.584516 0.228967
154 1 0.5 0.584516 0.228967
127 1 4.16389e-17 0.757055 0.193633
175 1 0.5 0.757055 0.193633
134 1 0.25 0.699479 0.237868
182 1 0.75 0.699479 0.237868
102 1 7.3366e-17 0.892091 0.183408
150 1 0.5 0.892091 0.183408
110 1 0.25 0.834516 0.228967
128 1 1 0.949479 0.237868
158 1 0.75 0.834516 0.228967
176 1 0.5 0.949479 0.237868
135 1 0.25 0.10857 0.386723
183 1 0.75 0.10857 0.386723
17 1 0.25 0.243608 0.377822
65 1 0.75 0.243608 0.377822
35 1 1.82552e-17 0.35857 0.386723
83 1 0.5 0.35857 0.386723
11 1 6.52908e-18 0.493608 0.377822
59 1 0.5 0.493608 0.377822
39 1 0.25 0.60857 0.386723
87 1 0.75 0.60857 0.386723
113 1 0.25 0.743608 0.377822
161 1 0.75 0.743608 0.377822
131 1 0 0.85857 0.386723
179 1 0.5 0.85857 0.386723
107 1 0 0.993608 0.377822
155 1 0.5 0.993608 0.377822
115 1 0.25 0.128462 0.467999
163 1 0.75 0.128462 0.467999
132 1 9.88134e-18 0.0509952 0.432283
180 1 0.5 0.0509952 0.432283
108 1 0 0.186032 0.422057
156 1 0.5 0.186032 0.422057
40 1 1 0.243398 0.47903
88 1 0.5 0.243398 0.47903
43 1 0.25 0.300995 0.432283
91 1 0.75 0.300995 0.432283
15 1 0 0.378462 0.467999
63 1 0.5 0.378462 0.467999
18 1 0.25 0.436032 0.422057
66 1 0.75 0.436032 0.422057
44 1 0.25 0.493398 0.47903
92 1 0.75 0.493398 0.47903
36 1 0 0.550995 0.432283
84 1 0.5 0.550995 0.432283
19 1 0.25 0.628462 0.467999
67 1 0.75 0.628462 0.467999
12 1 4.76406e-18 0.686032 0.422057
60 1 0.5 0.686032 0.422057
136 1 2.57553e-17 0.743398 0.47903
184 1 0.5 0.743398 0.47903
139 1 0.25 0.800995 0.432283
187 1 0.75 0.800995 0.432283
111 1 2.62312e-18 0.878462 0.467999
159 1 0.5 0.878462 0.467999
114 1 0.25 0.936032 0.422057
162 1 0.75 0.936032 0.422057
140 1 0.25 0.993398 0.47903
188 1 0.75 0.993398 0.47903
138 1 5.31328e-18 0.127992 0.571311
186 1 0.5 0.127992 0.571311
112 1 0 0.0709091 0.51438
160 1 0.5 0.0709091 0.51438
118 1 0.25 0.0130906 0.561197
166 1 0.75 0.0130906 0.561197
141 1 0.25 0.185932 0.525442
189 1 0.75 0.185932 0.525442
20 1 3.43753e-17 0.263091 0.561197
68 1 0.5 0.263091 0.561197
24 1 0.25 0.320909 0.51438
72 1 0.75 0.320909 0.51438
47 1 0.25 0.377992 0.571311
95 1 0.75 0.377992 0.571311
41 1 0 0.435932 0.525442
89 1 0.5 0.435932 0.525442
22 1 0.25 0.513091 0.561197
70 1 0.75 0.513091 0.561197
16 1 1.70474e-17 0.570909 0.51438
64 1 0.5 0.570909 0.51438
42 1 2.41617e-17 0.627992 0.571311
90 1 0.5 0.627992 0.571311
45 1 0.25 0.685932 0.525442
93 1 0.75 0.685932 0.525442
116 1 5.55776e-17 0.763091 0.561197
164 1 0.5 0.763091 0.561197
120 1 0.25 0.820909 0.51438
168 1 0.75 0.820909 0.51438
143 1 0.25 0.877992 0.571311
191 1 0.75 0.877992 0.571311
137 1 2.8427e-17 0.935932 0.525442
185 1 0.5 0.935932 0.525442
144 1 0.25 0.0716917 0.615691
192 1 0.75 0.0716917 0.615691
119 1 0.25 0.206262 0.6065
167 1 0.75 0.206262 0.6065
46 1 0 0.321692 0.615691
94 1 0.5 0.321692 0.615691
21 1 0 0.456262 0.6065
69 1 0.5 0.456262 0.6065
48 1 0.25 0.571692 0.615691
96 1 0.75 0.571692 0.615691
23 1 0.25 0.706262 0.6065
71 1 0.75 0.706262 0.6065
142 1 0 0.821692 0.615691
190 1 0.5 0.821692 0.615691
117 1 0 0.956262 0.6065
165 1 0.5 0.956262 0.6065
