ITEM: TIMESTEP
66
ITEM: NUMBER OF ATOMS
48
ITEM: BOX BOUNDS pp pp pp
0.0000000000000000e+00 2.9505999088000001e+00
0.0000000000000000e+00 1.0662213269878100e+01
0.0000000000000000e+00 4.3042699813799999e+01
ITEM: ATOMS id type xs ys zs
1 1 0 0.24279 0
7 1 0.5 0.137017 0.0485995
26 1 0 0.366753 0.0574823
28 1 0.5 0.47365 0.00868461
2 1 8.17206e-17 0.637017 0.0485995
3 1 0.5 0.74279 0
25 1 0 0.97365 0.00868461
29 1 0.5 0.866753 0.0574823
4 1 1 0.0185161 0.102116
5 1 1 0.402243 0.154122
30 1 1.05805e-16 0.133585 0.162272
33 1 0.5 0.250037 0.1106
8 1 0.5 0.518516 0.102116
9 1 0.5 0.902243 0.154122
27 1 1.07665e-16 0.750037 0.1106
34 1 0.5 0.633585 0.162272
10 1 2.22028e-17 0.169003 0.260989
13 1 0.5 0.285518 0.206879
37 1 0.5 0.0168956 0.214483
38 1 0.5 0.400396 0.26507
6 1 2.21384e-17 0.785518 0.206879
14 1 0.5 0.669003 0.260989
31 1 5.75118e-17 0.516896 0.214483
32 1 7.57478e-18 0.900396 0.26507
17 1 0.5 0.252443 0.31674
35 1 1.54604e-16 0.483836 0.320821
11 1 1 0.752443 0.31674
39 1 0.5 0.983836 0.320821
40 1 1 0.250596 0.427689
43 1 0.5 0.367321 0.374931
12 1 6.873e-17 0.135944 0.367328
19 1 0.5 0.0192547 0.419539
15 1 1 0.519255 0.419539
18 1 0.5 0.635944 0.367328
36 1 2.27648e-16 0.867321 0.374931
44 1 0.5 0.750596 0.427689
20 1 1 0.286086 0.524328
24 1 0.5 0.402803 0.47121
45 1 0.5 0.134323 0.479694
42 1 0 0.0158232 0.533211
47 1 0.5 0.515823 0.533211
41 1 9.31234e-17 0.634323 0.479694
16 1 0 0.902803 0.47121
22 1 0.5 0.786086 0.524328
46 1 0 0.41005 0.58181
23 1 0.5 0.17919 0.573126
21 1 0 0.67919 0.573126
48 1 0.5 0.91005 0.58181
