ITEM: TIMESTEP
57
ITEM: NUMBER OF ATOMS
48
ITEM: BOX BOUNDS pp pp pp
0.0000000000000000e+00 2.9505999088000001e+00
0.0000000000000000e+00 1.0662213269878100e+01
0.0000000000000000e+00 4.3042699813799999e+01
ITEM: ATOMS id type xs ys zs
1 1 0 0.24279 0
7 1 0.5 0.137017 0.048504
26 1 0 0.366753 0.0574021
28 1 0.5 0.47365 0.00868461
2 1 8.17206e-17 0.637017 0.048504
3 1 0.5 0.74279 0
25 1 0 0.97365 0.00868461
29 1 0.5 0.866753 0.0574021
4 1 1 0.0185161 0.101929
5 1 1 0.402243 0.153703
30 1 1.05805e-16 0.133585 0.162112
33 1 0.5 0.250037 0.110412
8 1 0.5 0.518516 0.101929
9 1 0.5 0.902243 0.153703
27 1 1.07665e-16 0.750037 0.110412
34 1 0.5 0.633585 0.162112
10 1 2.22028e-17 0.169003 0.258818
13 1 0.5 0.285518 0.206581
37 1 0.5 0.0168956 0.213949
38 1 0.5 0.400396 0.265833
6 1 2.21384e-17 0.785518 0.206581
14 1 0.5 0.669003 0.258818
31 1 5.75118e-17 0.516896 0.213949
32 1 7.57478e-18 0.900396 0.265833
17 1 0.5 0.21911 0.315978
35 1 1.54604e-16 0.450502 0.322992
11 1 1 0.71911 0.315978
39 1 0.5 0.950502 0.322992
15 1 1 0.485921 0.419699
40 1 1 0.217263 0.428107
43 1 0.5 0.333988 0.375229
12 1 6.873e-17 0.10261 0.367861
18 1 0.5 0.60261 0.367861
19 1 0.5 0.985921 0.419699
36 1 2.27648e-16 0.833988 0.375229
44 1 0.5 0.717263 0.428107
20 1 1 0.252753 0.524408
24 1 0.5 0.369469 0.471398
47 1 0.5 0.48249 0.533306
45 1 0.5 0.10099 0.479882
41 1 9.31234e-17 0.60099 0.479882
16 1 0 0.869469 0.471398
22 1 0.5 0.752753 0.524408
42 1 0 0.98249 0.533306
46 1 0 0.376717 0.58181
23 1 0.5 0.145857 0.573126
21 1 0 0.645857 0.573126
48 1 0.5 0.876717 0.58181
