ITEM: TIMESTEP
123
ITEM: NUMBER OF ATOMS
192
ITEM: BOX BOUNDS pp pp pp
0.0000000000000000e+00 7.1176886540000002e+00
0.0000000000000000e+00 2.5858194780409800e+01
0.0000000000000000e+00 4.8301037599330101e+01
ITEM: ATOMS id type xs ys zs
1 1 0 0.121395 0
7 1 0.25 0.0650943 0.0443405
49 1 0.5 0.121395 0
55 1 0.75 0.0650943 0.0443405
2 1 3.36001e-17 0.315094 0.0443405
26 1 0 0.179996 0.0544707
28 1 0.25 0.236825 0.00919034
50 1 0.5 0.315094 0.0443405
74 1 0.5 0.179996 0.0544707
76 1 0.75 0.236825 0.00919034
3 1 0.25 0.371395 0
25 1 0 0.486825 0.00919034
29 1 0.25 0.429996 0.0544707
51 1 0.75 0.371395 0
73 1 0.5 0.486825 0.00919034
77 1 0.75 0.429996 0.0544707
97 1 0 0.621395 0
103 1 0.25 0.565094 0.0443405
145 1 0.5 0.621395 0
151 1 0.75 0.565094 0.0443405
98 1 3.56679e-17 0.815094 0.0443405
122 1 4.00817e-17 0.679996 0.0544707
124 1 0.25 0.736825 0.00919034
146 1 0.5 0.815094 0.0443405
170 1 0.5 0.679996 0.0544707
172 1 0.75 0.736825 0.00919034
99 1 0.25 0.871395 0
121 1 0 0.986825 0.00919034
125 1 0.25 0.929996 0.0544707
147 1 0.75 0.871395 0
169 1 0.5 0.986825 0.00919034
173 1 0.75 0.929996 0.0544707
4 1 0 0.00715404 0.0901506
33 1 0.25 0.122177 0.101231
52 1 0.5 0.00715404 0.0901506
81 1 0.75 0.122177 0.101231
30 1 3.41948e-17 0.0646243 0.147556
78 1 0.5 0.0646243 0.147556
5 1 1 0.199689 0.13651
8 1 0.25 0.257154 0.0901506
53 1 0.5 0.199689 0.13651
56 1 0.75 0.257154 0.0901506
34 1 0.25 0.314624 0.147556
82 1 0.75 0.314624 0.147556
9 1 0.25 0.449689 0.13651
27 1 0 0.372177 0.101231
57 1 0.75 0.449689 0.13651
75 1 0.5 0.372177 0.101231
100 1 1.04306e-17 0.507154 0.0901506
129 1 0.25 0.622177 0.101231
148 1 0.5 0.507154 0.0901506
177 1 0.75 0.622177 0.101231
126 1 0 0.564624 0.147556
174 1 0.5 0.564624 0.147556
101 1 0 0.699689 0.13651
104 1 0.25 0.757154 0.0901506
149 1 0.5 0.699689 0.13651
152 1 0.75 0.757154 0.0901506
130 1 0.25 0.814624 0.147556
178 1 0.75 0.814624 0.147556
105 1 0.25 0.949689 0.13651
123 1 1.74769e-17 0.872177 0.101231
153 1 0.75 0.949689 0.13651
171 1 0.5 0.872177 0.101231
13 1 0.25 0.142091 0.183201
37 1 0.25 0.00705467 0.193443
61 1 0.75 0.142091 0.183201
85 1 0.75 0.00705467 0.193443
10 1 0 0.0845159 0.228748
58 1 0.5 0.0845159 0.228748
31 1 4.88341e-17 0.257055 0.193443
79 1 0.5 0.257055 0.193443
38 1 0.25 0.199479 0.237635
86 1 0.75 0.199479 0.237635
6 1 0 0.392091 0.183201
54 1 0.5 0.392091 0.183201
14 1 0.25 0.334516 0.228748
32 1 0 0.449479 0.237635
62 1 0.75 0.334516 0.228748
80 1 0.5 0.449479 0.237635
109 1 0.25 0.642091 0.183201
133 1 0.25 0.507055 0.193443
157 1 0.75 0.642091 0.183201
181 1 0.75 0.507055 0.193443
106 1 0 0.584516 0.228748
154 1 0.5 0.584516 0.228748
127 1 4.16389e-17 0.757055 0.193443
175 1 0.5 0.757055 0.193443
134 1 0.25 0.699479 0.237635
182 1 0.75 0.699479 0.237635
102 1 7.3366e-17 0.892091 0.183201
150 1 0.5 0.892091 0.183201
110 1 0.25 0.834516 0.228748
128 1 1 0.949479 0.237635
158 1 0.75 0.834516 0.228748
176 1 0.5 0.949479 0.237635
17 1 0.25 0.143608 0.378055
65 1 0.75 0.143608 0.378055
135 1 0.25 0.00857035 0.386943
183 1 0.75 0.00857035 0.386943
35 1 1.82552e-17 0.25857 0.386943
83 1 0.5 0.25857 0.386943
11 1 6.52908e-18 0.393608 0.378055
59 1 0.5 0.393608 0.378055
39 1 0.25 0.50857 0.386943
87 1 0.75 0.50857 0.386943
113 1 0.25 0.643608 0.378055
161 1 0.75 0.643608 0.378055
131 1 0 0.75857 0.386943
179 1 0.5 0.75857 0.386943
107 1 0 0.893608 0.378055
155 1 0.5 0.893608 0.378055
108 1 0 0.0860316 0.422248
156 1 0.5 0.0860316 0.422248
40 1 1 0.143398 0.479181
88 1 0.5 0.143398 0.479181
115 1 0.25 0.028462 0.468134
163 1 0.75 0.028462 0.468134
43 1 0.25 0.200995 0.432489
91 1 0.75 0.200995 0.432489
15 1 0 0.278462 0.468134
63 1 0.5 0.278462 0.468134
18 1 0.25 0.336032 0.422248
66 1 0.75 0.336032 0.422248
36 1 0 0.450995 0.432489
84 1 0.5 0.450995 0.432489
44 1 0.25 0.393398 0.479181
92 1 0.75 0.393398 0.479181
19 1 0.25 0.528462 0.468134
67 1 0.75 0.528462 0.468134
12 1 4.76406e-18 0.586032 0.422248
60 1 0.5 0.586032 0.422248
136 1 2.57553e-17 0.643398 0.479181
184 1 0.5 0.643398 0.479181
139 1 0.25 0.700995 0.432489
187 1 0.75 0.700995 0.432489
111 1 2.62312e-18 0.778462 0.468134
159 1 0.5 0.778462 0.468134
114 1 0.25 0.836032 0.422248
162 1 0.75 0.836032 0.422248
132 1 9.88134e-18 0.950995 0.432489
180 1 0.5 0.950995 0.432489
140 1 0.25 0.893398 0.479181
188 1 0.75 0.893398 0.479181
20 1 3.43753e-17 0.163091 0.56122
68 1 0.5 0.163091 0.56122
141 1 0.25 0.0859324 0.52554
189 1 0.75 0.0859324 0.52554
138 1 5.31328e-18 0.0279922 0.57135
186 1 0.5 0.0279922 0.57135
24 1 0.25 0.220909 0.514459
72 1 0.75 0.220909 0.514459
47 1 0.25 0.277992 0.57135
95 1 0.75 0.277992 0.57135
41 1 0 0.335932 0.52554
89 1 0.5 0.335932 0.52554
16 1 1.70474e-17 0.470909 0.514459
64 1 0.5 0.470909 0.514459
22 1 0.25 0.413091 0.56122
70 1 0.75 0.413091 0.56122
42 1 2.41617e-17 0.527992 0.57135
90 1 0.5 0.527992 0.57135
45 1 0.25 0.585932 0.52554
93 1 0.75 0.585932 0.52554
116 1 5.55776e-17 0.663091 0.56122
164 1 0.5 0.663091 0.56122
120 1 0.25 0.720909 0.514459
168 1 0.75 0.720909 0.514459
143 1 0.25 0.777992 0.57135
191 1 0.75 0.777992 0.57135
137 1 2.8427e-17 0.835932 0.52554
185 1 0.5 0.835932 0.52554
112 1 0 0.970909 0.514459
160 1 0.5 0.970909 0.514459
118 1 0.25 0.913091 0.56122
166 1 0.75 0.913091 0.56122
119 1 0.25 0.106262 0.6065
167 1 0.75 0.106262 0.6065
46 1 0 0.221692 0.615691
94 1 0.5 0.221692 0.615691
21 1 0 0.356262 0.6065
69 1 0.5 0.356262 0.6065
48 1 0.25 0.471692 0.615691
96 1 0.75 0.471692 0.615691
23 1 0.25 0.606262 0.6065
71 1 0.75 0.606262 0.6065
142 1 0 0.721692 0.615691
190 1 0.5 0.721692 0.615691
117 1 0 0.856262 0.6065
165 1 0.5 0.856262 0.6065
144 1 0.25 0.971692 0.615691
192 1 0.75 0.971692 0.615691
