ITEM: TIMESTEP
85
ITEM: NUMBER OF ATOMS
48
ITEM: BOX BOUNDS pp pp pp
0.0000000000000000e+00 2.9505999088000001e+00
0.0000000000000000e+00 1.0662213269878100e+01
0.0000000000000000e+00 4.3042699813799999e+01
ITEM: ATOMS id type xs ys zs
1 1 0 0.24279 0
7 1 0.5 0.137017 0.0487717
26 1 0 0.366753 0.0576446
28 1 0.5 0.47365 0.00868461
2 1 8.17206e-17 0.637017 0.0487717
3 1 0.5 0.74279 0
25 1 0 0.97365 0.00868461
29 1 0.5 0.866753 0.0576446
4 1 1 0.0185161 0.102443
5 1 1 0.402243 0.154745
30 1 1.05805e-16 0.133585 0.162698
33 1 0.5 0.250037 0.110951
8 1 0.5 0.518516 0.102443
9 1 0.5 0.902243 0.154745
27 1 1.07665e-16 0.750037 0.110951
34 1 0.5 0.633585 0.162698
10 1 2.22028e-17 0.169003 0.263542
13 1 0.5 0.285518 0.207707
37 1 0.5 0.0168956 0.215042
38 1 0.5 0.400396 0.264123
6 1 2.21384e-17 0.785518 0.207707
14 1 0.5 0.669003 0.263542
31 1 5.75118e-17 0.516896 0.215042
32 1 7.57478e-18 0.900396 0.264123
17 1 0.5 0.31911 0.317688
39 1 0.5 0.0505024 0.318268
35 1 1.54604e-16 0.550502 0.318268
11 1 1 0.81911 0.317688
40 1 1 0.317263 0.427065
43 1 0.5 0.433988 0.374104
12 1 6.873e-17 0.20261 0.366768
19 1 0.5 0.0859214 0.419112
15 1 1 0.585921 0.419112
18 1 0.5 0.70261 0.366768
36 1 2.27648e-16 0.933988 0.374104
44 1 0.5 0.817263 0.427065
20 1 1 0.352753 0.524166
24 1 0.5 0.469469 0.470859
45 1 0.5 0.20099 0.479368
42 1 0 0.0824899 0.533039
47 1 0.5 0.58249 0.533039
41 1 9.31234e-17 0.70099 0.479368
16 1 0 0.969469 0.470859
22 1 0.5 0.852753 0.524166
46 1 0 0.476717 0.58181
23 1 0.5 0.245857 0.573126
21 1 0 0.745857 0.573126
48 1 0.5 0.976717 0.58181
