ITEM: TIMESTEP
133
ITEM: NUMBER OF ATOMS
48
ITEM: BOX BOUNDS pp pp pp
0.0000000000000000e+00 2.9505999088000001e+00
0.0000000000000000e+00 1.0662213269878100e+01
0.0000000000000000e+00 4.3042699813799999e+01
ITEM: ATOMS id type xs ys zs
1 1 0 0.24279 0
7 1 0.5 0.137017 0.0484473
26 1 0 0.366753 0.0573394
28 1 0.5 0.47365 0.00868461
2 1 8.17206e-17 0.637017 0.0484474
3 1 0.5 0.74279 0
25 1 0 0.97365 0.00868461
29 1 0.5 0.866753 0.0573394
4 1 1 0.0185161 0.101769
5 1 1 0.402243 0.15365
30 1 1.05805e-16 0.133585 0.161797
33 1 0.5 0.250037 0.110305
8 1 0.5 0.518516 0.101769
9 1 0.5 0.902243 0.15365
27 1 1.07665e-16 0.750037 0.110305
34 1 0.5 0.633585 0.161797
10 1 2.22028e-17 0.169003 0.260333
13 1 0.5 0.285518 0.206433
37 1 0.5 0.0168956 0.213715
38 1 0.5 0.400396 0.263362
6 1 2.21384e-17 0.785518 0.206433
14 1 0.5 0.669003 0.260333
31 1 5.75118e-17 0.516896 0.213715
32 1 7.57478e-18 0.900396 0.263362
17 1 0.5 0.485776 0.318449
39 1 0.5 0.217169 0.321477
35 1 1.54604e-16 0.717169 0.321477
11 1 1 0.985776 0.318449
40 1 1 0.48393 0.428161
12 1 6.873e-17 0.369277 0.368095
19 1 0.5 0.252588 0.420014
36 1 2.27648e-16 0.100654 0.375378
43 1 0.5 0.600654 0.375378
15 1 1 0.752588 0.420014
18 1 0.5 0.869277 0.368095
44 1 0.5 0.98393 0.428161
45 1 0.5 0.367657 0.480042
42 1 0 0.249157 0.533363
16 1 0 0.136136 0.471506
22 1 0.5 0.0194198 0.524471
20 1 1 0.51942 0.524471
24 1 0.5 0.636136 0.471506
47 1 0.5 0.749157 0.533363
41 1 9.31234e-17 0.867657 0.480042
23 1 0.5 0.412523 0.573126
48 1 0.5 0.143383 0.58181
46 1 0 0.643383 0.58181
21 1 0 0.912523 0.573126
