ITEM: TIMESTEP
218
ITEM: NUMBER OF ATOMS
192
ITEM: BOX BOUNDS pp pp pp
0.0000000000000000e+00 7.1176886540000002e+00
0.0000000000000000e+00 2.5858194780409800e+01
0.0000000000000000e+00 4.8301037599330101e+01
ITEM: ATOMS id type xs ys zs
1 1 0 0.121395 0
7 1 0.25 0.0650943 0.0442745
49 1 0.5 0.121395 0
55 1 0.75 0.0650943 0.0442745
2 1 3.36001e-17 0.315094 0.0442745
26 1 0 0.179996 0.0544318
28 1 0.25 0.236825 0.00919034
50 1 0.5 0.315094 0.0442745
74 1 0.5 0.179996 0.0544318
76 1 0.75 0.236825 0.00919034
3 1 0.25 0.371395 0
25 1 0 0.486825 0.00919034
29 1 0.25 0.429996 0.0544318
51 1 0.75 0.371395 0
73 1 0.5 0.486825 0.00919034
77 1 0.75 0.429996 0.0544318
97 1 0 0.621395 0
103 1 0.25 0.565094 0.0442745
145 1 0.5 0.621395 0
151 1 0.75 0.565094 0.0442745
98 1 3.56679e-17 0.815094 0.0442745
122 1 4.00817e-17 0.679996 0.0544318
124 1 0.25 0.736825 0.00919034
146 1 0.5 0.815094 0.0442745
170 1 0.5 0.679996 0.0544318
172 1 0.75 0.736825 0.00919034
99 1 0.25 0.871395 0
121 1 0 0.986825 0.00919034
125 1 0.25 0.929996 0.0544318
147 1 0.75 0.871395 0
169 1 0.5 0.986825 0.00919034
173 1 0.75 0.929996 0.0544318
4 1 0 0.00715404 0.0899806
33 1 0.25 0.122177 0.101095
52 1 0.5 0.00715404 0.0899806
81 1 0.75 0.122177 0.101095
30 1 3.41948e-17 0.0646243 0.14732
78 1 0.5 0.0646243 0.14732
5 1 1 0.199689 0.136245
8 1 0.25 0.257154 0.0899806
53 1 0.5 0.199689 0.136245
56 1 0.75 0.257154 0.0899806
34 1 0.25 0.314624 0.14732
82 1 0.75 0.314624 0.14732
9 1 0.25 0.449689 0.136245
27 1 0 0.372177 0.101095
57 1 0.75 0.449689 0.136245
75 1 0.5 0.372177 0.101095
100 1 1.04306e-17 0.507154 0.0899806
129 1 0.25 0.622177 0.101095
148 1 0.5 0.507154 0.0899806
177 1 0.75 0.622177 0.101095
126 1 0 0.564624 0.14732
174 1 0.5 0.564624 0.14732
101 1 0 0.699689 0.136245
104 1 0.25 0.757154 0.0899806
149 1 0.5 0.699689 0.136245
152 1 0.75 0.757154 0.0899806
130 1 0.25 0.814624 0.14732
178 1 0.75 0.814624 0.14732
105 1 0.25 0.949689 0.136245
123 1 1.74769e-17 0.872177 0.101095
153 1 0.75 0.949689 0.136245
171 1 0.5 0.872177 0.101095
13 1 0.25 0.142091 0.182838
37 1 0.25 0.00705467 0.193107
61 1 0.75 0.142091 0.182838
85 1 0.75 0.00705467 0.193107
10 1 0 0.0845159 0.228359
58 1 0.5 0.0845159 0.228359
31 1 4.88341e-17 0.257055 0.193107
79 1 0.5 0.257055 0.193107
38 1 0.25 0.199479 0.237226
86 1 0.75 0.199479 0.237226
6 1 0 0.392091 0.182838
54 1 0.5 0.392091 0.182838
14 1 0.25 0.334516 0.228359
32 1 0 0.449479 0.237226
62 1 0.75 0.334516 0.228359
80 1 0.5 0.449479 0.237226
109 1 0.25 0.642091 0.182838
133 1 0.25 0.507055 0.193107
157 1 0.75 0.642091 0.182838
181 1 0.75 0.507055 0.193107
106 1 0 0.584516 0.228359
154 1 0.5 0.584516 0.228359
127 1 4.16389e-17 0.757055 0.193107
175 1 0.5 0.757055 0.193107
134 1 0.25 0.699479 0.237226
182 1 0.75 0.699479 0.237226
102 1 7.3366e-17 0.892091 0.182838
150 1 0.5 0.892091 0.182838
110 1 0.25 0.834516 0.228359
128 1 1 0.949479 0.237226
158 1 0.75 0.834516 0.228359
176 1 0.5 0.949479 0.237226
107 1 0 0.0936077 0.378464
155 1 0.5 0.0936077 0.378464
135 1 0.25 0.20857 0.387332
183 1 0.75 0.20857 0.387332
17 1 0.25 0.343608 0.378464
65 1 0.75 0.343608 0.378464
35 1 1.82552e-17 0.45857 0.387332
83 1 0.5 0.45857 0.387332
11 1 6.52908e-18 0.593608 0.378464
59 1 0.5 0.593608 0.378464
39 1 0.25 0.70857 0.387332
87 1 0.75 0.70857 0.387332
113 1 0.25 0.843608 0.378464
161 1 0.75 0.843608 0.378464
131 1 0 0.95857 0.387332
179 1 0.5 0.95857 0.387332
132 1 9.88134e-18 0.150995 0.432853
180 1 0.5 0.150995 0.432853
140 1 0.25 0.0933975 0.479446
188 1 0.75 0.0933975 0.479446
114 1 0.25 0.0360316 0.422583
162 1 0.75 0.0360316 0.422583
115 1 0.25 0.228462 0.46837
163 1 0.75 0.228462 0.46837
108 1 0 0.286032 0.422583
156 1 0.5 0.286032 0.422583
40 1 1 0.343398 0.479446
88 1 0.5 0.343398 0.479446
43 1 0.25 0.400995 0.432853
91 1 0.75 0.400995 0.432853
15 1 0 0.478462 0.46837
63 1 0.5 0.478462 0.46837
18 1 0.25 0.536032 0.422583
66 1 0.75 0.536032 0.422583
44 1 0.25 0.593398 0.479446
92 1 0.75 0.593398 0.479446
36 1 0 0.650995 0.432853
84 1 0.5 0.650995 0.432853
19 1 0.25 0.728462 0.46837
67 1 0.75 0.728462 0.46837
12 1 4.76406e-18 0.786032 0.422583
60 1 0.5 0.786032 0.422583
136 1 2.57553e-17 0.843398 0.479446
184 1 0.5 0.843398 0.479446
139 1 0.25 0.900995 0.432853
187 1 0.75 0.900995 0.432853
111 1 2.62312e-18 0.978462 0.46837
159 1 0.5 0.978462 0.46837
118 1 0.25 0.113091 0.561259
166 1 0.75 0.113091 0.561259
137 1 2.8427e-17 0.0359324 0.52571
185 1 0.5 0.0359324 0.52571
112 1 0 0.170909 0.514595
160 1 0.5 0.170909 0.514595
138 1 5.31328e-18 0.227992 0.571416
186 1 0.5 0.227992 0.571416
141 1 0.25 0.285932 0.52571
189 1 0.75 0.285932 0.52571
20 1 3.43753e-17 0.363091 0.561259
68 1 0.5 0.363091 0.561259
24 1 0.25 0.420909 0.514595
72 1 0.75 0.420909 0.514595
47 1 0.25 0.477992 0.571416
95 1 0.75 0.477992 0.571416
41 1 0 0.535932 0.52571
89 1 0.5 0.535932 0.52571
22 1 0.25 0.613091 0.561259
70 1 0.75 0.613091 0.561259
16 1 1.70474e-17 0.670909 0.514595
64 1 0.5 0.670909 0.514595
42 1 2.41617e-17 0.727992 0.571416
90 1 0.5 0.727992 0.571416
45 1 0.25 0.785932 0.52571
93 1 0.75 0.785932 0.52571
116 1 5.55776e-17 0.863091 0.561259
164 1 0.5 0.863091 0.561259
120 1 0.25 0.920909 0.514595
168 1 0.75 0.920909 0.514595
143 1 0.25 0.977992 0.571416
191 1 0.75 0.977992 0.571416
117 1 0 0.0562617 0.6065
165 1 0.5 0.0562617 0.6065
144 1 0.25 0.171692 0.615691
192 1 0.75 0.171692 0.615691
119 1 0.25 0.306262 0.6065
167 1 0.75 0.306262 0.6065
46 1 0 0.421692 0.615691
94 1 0.5 0.421692 0.615691
21 1 0 0.556262 0.6065
69 1 0.5 0.556262 0.6065
48 1 0.25 0.671692 0.615691
96 1 0.75 0.671692 0.615691
23 1 0.25 0.806262 0.6065
71 1 0.75 0.806262 0.6065
142 1 0 0.921692 0.615691
190 1 0.5 0.921692 0.615691
