ITEM: TIMESTEP
235
ITEM: NUMBER OF ATOMS
48
ITEM: BOX BOUNDS pp pp pp
0.0000000000000000e+00 2.9505999088000001e+00
0.0000000000000000e+00 1.0662213269878100e+01
0.0000000000000000e+00 4.3042699813799999e+01
ITEM: ATOMS id type xs ys zs
1 1 0 0.24279 0
7 1 0.5 0.137017 0.0482729
26 1 0 0.366753 0.057192
28 1 0.5 0.47365 0.00868461
2 1 8.17206e-17 0.637017 0.0482729
3 1 0.5 0.74279 0
25 1 0 0.97365 0.00868461
29 1 0.5 0.866753 0.057192
4 1 1 0.0185161 0.101415
5 1 1 0.402243 0.152982
30 1 1.05805e-16 0.133585 0.161325
33 1 0.5 0.250037 0.109971
8 1 0.5 0.518516 0.101415
9 1 0.5 0.902243 0.152982
27 1 1.07665e-16 0.750037 0.109971
34 1 0.5 0.633585 0.161325
10 1 2.22028e-17 0.169003 0.258354
13 1 0.5 0.285518 0.205753
37 1 0.5 0.0168956 0.213236
38 1 0.5 0.400396 0.263142
6 1 2.21384e-17 0.785518 0.205753
14 1 0.5 0.669003 0.258354
31 1 5.75118e-17 0.516896 0.213236
32 1 7.57478e-18 0.900396 0.263142
11 1 1 0.385776 0.318668
35 1 1.54604e-16 0.117169 0.323456
39 1 0.5 0.617169 0.323456
17 1 0.5 0.885776 0.318668
44 1 0.5 0.38393 0.428829
18 1 0.5 0.269277 0.368574
15 1 1 0.152588 0.420486
43 1 0.5 0.000654333 0.376058
36 1 2.27648e-16 0.500654 0.376058
19 1 0.5 0.652588 0.420486
12 1 6.873e-17 0.769277 0.368574
40 1 1 0.88393 0.428829
22 1 0.5 0.41942 0.524618
41 1 9.31234e-17 0.267657 0.480395
47 1 0.5 0.149157 0.533538
24 1 0.5 0.036136 0.471839
16 1 0 0.536136 0.471839
42 1 0 0.649157 0.533538
45 1 0.5 0.767657 0.480395
20 1 1 0.91942 0.524618
21 1 0 0.312523 0.573126
46 1 0 0.0433833 0.58181
48 1 0.5 0.543383 0.58181
23 1 0.5 0.812523 0.573126
