ITEM: TIMESTEP
157
ITEM: NUMBER OF ATOMS
192
ITEM: BOX BOUNDS pp pp pp
0.0000000000000000e+00 7.1176886540000002e+00
0.0000000000000000e+00 2.5858194780409800e+01
0.0000000000000000e+00 4.8301037599330101e+01
ITEM: ATOMS id type xs ys zs
1 1 0 0.121395 0
7 1 0.25 0.0650943 0.0444486
49 1 0.5 0.121395 0
55 1 0.75 0.0650943 0.0444486
2 1 3.36001e-17 0.315094 0.0444486
26 1 0 0.179996 0.0545366
28 1 0.25 0.236825 0.00919034
50 1 0.5 0.315094 0.0444486
74 1 0.5 0.179996 0.0545366
76 1 0.75 0.236825 0.00919034
3 1 0.25 0.371395 0
25 1 0 0.486825 0.00919034
29 1 0.25 0.429996 0.0545366
51 1 0.75 0.371395 0
73 1 0.5 0.486825 0.00919034
77 1 0.75 0.429996 0.0545366
97 1 0 0.621395 0
103 1 0.25 0.565094 0.0444486
145 1 0.5 0.621395 0
151 1 0.75 0.565094 0.0444486
98 1 3.56679e-17 0.815094 0.0444486
122 1 4.00817e-17 0.679996 0.0545366
124 1 0.25 0.736825 0.00919034
146 1 0.5 0.815094 0.0444486
170 1 0.5 0.679996 0.0545366
172 1 0.75 0.736825 0.00919034
99 1 0.25 0.871395 0
121 1 0 0.986825 0.00919034
125 1 0.25 0.929996 0.0545366
147 1 0.75 0.871395 0
169 1 0.5 0.986825 0.00919034
173 1 0.75 0.929996 0.0545366
4 1 0 0.00715404 0.0904207
33 1 0.25 0.122177 0.10145
52 1 0.5 0.00715404 0.0904207
81 1 0.75 0.122177 0.10145
30 1 3.41948e-17 0.0646243 0.147928
78 1 0.5 0.0646243 0.147928
5 1 1 0.199689 0.136925
8 1 0.25 0.257154 0.0904207
53 1 0.5 0.199689 0.136925
56 1 0.75 0.257154 0.0904207
34 1 0.25 0.314624 0.147928
82 1 0.75 0.314624 0.147928
9 1 0.25 0.449689 0.136925
27 1 0 0.372177 0.10145
57 1 0.75 0.449689 0.136925
75 1 0.5 0.372177 0.10145
100 1 1.04306e-17 0.507154 0.0904207
129 1 0.25 0.622177 0.10145
148 1 0.5 0.507154 0.0904207
177 1 0.75 0.622177 0.10145
126 1 0 0.564624 0.147928
174 1 0.5 0.564624 0.147928
101 1 0 0.699689 0.136925
104 1 0.25 0.757154 0.0904207
149 1 0.5 0.699689 0.136925
152 1 0.75 0.757154 0.0904207
130 1 0.25 0.814624 0.147928
178 1 0.75 0.814624 0.147928
105 1 0.25 0.949689 0.136925
123 1 1.74769e-17 0.872177 0.10145
153 1 0.75 0.949689 0.136925
171 1 0.5 0.872177 0.10145
13 1 0.25 0.142091 0.183772
37 1 0.25 0.00705467 0.19397
61 1 0.75 0.142091 0.183772
85 1 0.75 0.00705467 0.19397
10 1 0 0.0845159 0.229354
58 1 0.5 0.0845159 0.229354
31 1 4.88341e-17 0.257055 0.19397
79 1 0.5 0.257055 0.19397
38 1 0.25 0.199479 0.238285
86 1 0.75 0.199479 0.238285
6 1 0 0.392091 0.183772
54 1 0.5 0.392091 0.183772
14 1 0.25 0.334516 0.229354
32 1 0 0.449479 0.238285
62 1 0.75 0.334516 0.229354
80 1 0.5 0.449479 0.238285
109 1 0.25 0.642091 0.183772
133 1 0.25 0.507055 0.19397
157 1 0.75 0.642091 0.183772
181 1 0.75 0.507055 0.19397
106 1 0 0.584516 0.229354
154 1 0.5 0.584516 0.229354
127 1 4.16389e-17 0.757055 0.19397
175 1 0.5 0.757055 0.19397
134 1 0.25 0.699479 0.238285
182 1 0.75 0.699479 0.238285
102 1 7.3366e-17 0.892091 0.183772
150 1 0.5 0.892091 0.183772
110 1 0.25 0.834516 0.229354
128 1 1 0.949479 0.238285
158 1 0.75 0.834516 0.229354
176 1 0.5 0.949479 0.238285
135 1 0.25 0.075237 0.386337
183 1 0.75 0.075237 0.386337
17 1 0.25 0.210274 0.377406
65 1 0.75 0.210274 0.377406
35 1 1.82552e-17 0.325237 0.386337
83 1 0.5 0.325237 0.386337
11 1 6.52908e-18 0.460274 0.377406
59 1 0.5 0.460274 0.377406
39 1 0.25 0.575237 0.386337
87 1 0.75 0.575237 0.386337
113 1 0.25 0.710274 0.377406
161 1 0.75 0.710274 0.377406
131 1 0 0.825237 0.386337
179 1 0.5 0.825237 0.386337
107 1 0 0.960274 0.377406
155 1 0.5 0.960274 0.377406
108 1 0 0.152698 0.421721
156 1 0.5 0.152698 0.421721
115 1 0.25 0.0951286 0.467762
163 1 0.75 0.0951286 0.467762
132 1 9.88134e-18 0.0176618 0.431919
180 1 0.5 0.0176618 0.431919
40 1 1 0.210064 0.478765
88 1 0.5 0.210064 0.478765
43 1 0.25 0.267662 0.431919
91 1 0.75 0.267662 0.431919
15 1 0 0.345129 0.467762
63 1 0.5 0.345129 0.467762
18 1 0.25 0.402698 0.421721
66 1 0.75 0.402698 0.421721
44 1 0.25 0.460064 0.478765
92 1 0.75 0.460064 0.478765
36 1 0 0.517662 0.431919
84 1 0.5 0.517662 0.431919
19 1 0.25 0.595129 0.467762
67 1 0.75 0.595129 0.467762
12 1 4.76406e-18 0.652698 0.421721
60 1 0.5 0.652698 0.421721
136 1 2.57553e-17 0.710064 0.478765
184 1 0.5 0.710064 0.478765
139 1 0.25 0.767662 0.431919
187 1 0.75 0.767662 0.431919
111 1 2.62312e-18 0.845129 0.467762
159 1 0.5 0.845129 0.467762
114 1 0.25 0.902698 0.421721
162 1 0.75 0.902698 0.421721
140 1 0.25 0.960064 0.478765
188 1 0.75 0.960064 0.478765
141 1 0.25 0.152599 0.52527
189 1 0.75 0.152599 0.52527
138 1 5.31328e-18 0.0946589 0.571242
186 1 0.5 0.0946589 0.571242
112 1 0 0.0375757 0.514241
160 1 0.5 0.0375757 0.514241
20 1 3.43753e-17 0.229757 0.561154
68 1 0.5 0.229757 0.561154
24 1 0.25 0.287576 0.514241
72 1 0.75 0.287576 0.514241
47 1 0.25 0.344659 0.571242
95 1 0.75 0.344659 0.571242
41 1 0 0.402599 0.52527
89 1 0.5 0.402599 0.52527
22 1 0.25 0.479757 0.561154
70 1 0.75 0.479757 0.561154
16 1 1.70474e-17 0.537576 0.514241
64 1 0.5 0.537576 0.514241
42 1 2.41617e-17 0.594659 0.571242
90 1 0.5 0.594659 0.571242
45 1 0.25 0.652599 0.52527
93 1 0.75 0.652599 0.52527
116 1 5.55776e-17 0.729757 0.561154
164 1 0.5 0.729757 0.561154
120 1 0.25 0.787576 0.514241
168 1 0.75 0.787576 0.514241
143 1 0.25 0.844659 0.571242
191 1 0.75 0.844659 0.571242
137 1 2.8427e-17 0.902599 0.52527
185 1 0.5 0.902599 0.52527
118 1 0.25 0.979757 0.561154
166 1 0.75 0.979757 0.561154
144 1 0.25 0.0383583 0.615691
192 1 0.75 0.0383583 0.615691
119 1 0.25 0.172928 0.6065
167 1 0.75 0.172928 0.6065
46 1 0 0.288358 0.615691
94 1 0.5 0.288358 0.615691
21 1 0 0.422928 0.6065
69 1 0.5 0.422928 0.6065
48 1 0.25 0.538358 0.615691
96 1 0.75 0.538358 0.615691
23 1 0.25 0.672928 0.6065
71 1 0.75 0.672928 0.6065
142 1 0 0.788358 0.615691
190 1 0.5 0.788358 0.615691
117 1 0 0.922928 0.6065
165 1 0.5 0.922928 0.6065
