ITEM: TIMESTEP
187
ITEM: NUMBER OF ATOMS
48
ITEM: BOX BOUNDS pp pp pp
0.0000000000000000e+00 2.9505999088000001e+00
0.0000000000000000e+00 1.0662213269878100e+01
0.0000000000000000e+00 4.3042699813799999e+01
ITEM: ATOMS id type xs ys zs
1 1 0 0.24279 0
7 1 0.5 0.137017 0.0481452
26 1 0 0.366753 0.0571052
28 1 0.5 0.47365 0.00868461
2 1 8.17206e-17 0.637017 0.0481452
3 1 0.5 0.74279 0
25 1 0 0.97365 0.00868461
29 1 0.5 0.866753 0.0571052
4 1 1 0.0185161 0.101137
5 1 1 0.402243 0.152311
30 1 1.05805e-16 0.133585 0.161102
33 1 0.5 0.250037 0.109768
8 1 0.5 0.518516 0.101137
9 1 0.5 0.902243 0.152311
27 1 1.07665e-16 0.750037 0.109768
34 1 0.5 0.633585 0.161102
10 1 2.22028e-17 0.169003 0.254841
13 1 0.5 0.285518 0.204972
37 1 0.5 0.0168956 0.213264
38 1 0.5 0.400396 0.264506
6 1 2.21384e-17 0.785518 0.204972
14 1 0.5 0.669003 0.254841
31 1 5.75118e-17 0.516896 0.213264
32 1 7.57478e-18 0.900396 0.264506
39 1 0.5 0.417169 0.326969
11 1 1 0.185776 0.317305
17 1 0.5 0.685776 0.317305
35 1 1.54604e-16 0.917169 0.326969
19 1 0.5 0.452588 0.420708
36 1 2.27648e-16 0.300654 0.376839
44 1 0.5 0.18393 0.4295
18 1 0.5 0.0692769 0.368546
12 1 6.873e-17 0.569277 0.368546
40 1 1 0.68393 0.4295
43 1 0.5 0.800654 0.376839
15 1 1 0.952588 0.420708
42 1 0 0.449157 0.533665
16 1 0 0.336136 0.472042
22 1 0.5 0.21942 0.524705
41 1 9.31234e-17 0.0676568 0.480674
45 1 0.5 0.567657 0.480674
20 1 1 0.71942 0.524705
24 1 0.5 0.836136 0.472042
47 1 0.5 0.949157 0.533665
48 1 0.5 0.343383 0.58181
21 1 0 0.112523 0.573126
23 1 0.5 0.612523 0.573126
46 1 0 0.843383 0.58181
