ITEM: TIMESTEP
28
ITEM: NUMBER OF ATOMS
192
ITEM: BOX BOUNDS pp pp pp
0.0000000000000000e+00 7.1176886540000002e+00
0.0000000000000000e+00 2.5858194780409800e+01
0.0000000000000000e+00 4.8301037599330101e+01
ITEM: ATOMS id type xs ys zs
1 1 0 0.121395 0
7 1 0.25 0.0650943 0.0537372
49 1 0.5 0.121395 0
55 1 0.75 0.0650943 0.0537372
2 1 3.36001e-17 0.315094 0.0537372
26 1 0 0.179996 0.0630729
28 1 0.25 0.236825 0.00919034
50 1 0.5 0.315094 0.0537372
74 1 0.5 0.179996 0.0630729
76 1 0.75 0.236825 0.00919034
3 1 0.25 0.371395 0
25 1 0 0.486825 0.00919034
29 1 0.25 0.429996 0.0630729
51 1 0.75 0.371395 0
73 1 0.5 0.486825 0.00919034
77 1 0.75 0.429996 0.0630729
97 1 0 0.621395 0
103 1 0.25 0.565094 0.0537372
145 1 0.5 0.621395 0
151 1 0.75 0.565094 0.0537372
98 1 3.56679e-17 0.815094 0.0537372
122 1 4.00817e-17 0.679996 0.0630729
124 1 0.25 0.736825 0.00919034
146 1 0.5 0.815094 0.0537372
170 1 0.5 0.679996 0.0630729
172 1 0.75 0.736825 0.00919034
99 1 0.25 0.871395 0
121 1 0 0.986825 0.00919034
125 1 0.25 0.929996 0.0630729
147 1 0.75 0.871395 0
169 1 0.5 0.986825 0.00919034
173 1 0.75 0.929996 0.0630729
4 1 0 0.00715404 0.108448
33 1 0.25 0.122177 0.11828
52 1 0.5 0.00715404 0.108448
81 1 0.75 0.122177 0.11828
5 1 1 0.199689 0.163445
8 1 0.25 0.257154 0.108448
53 1 0.5 0.199689 0.163445
56 1 0.75 0.257154 0.108448
9 1 0.25 0.449689 0.163445
27 1 0 0.372177 0.11828
57 1 0.75 0.449689 0.163445
75 1 0.5 0.372177 0.11828
100 1 1.04306e-17 0.507154 0.108448
129 1 0.25 0.622177 0.11828
148 1 0.5 0.507154 0.108448
177 1 0.75 0.622177 0.11828
101 1 0 0.699689 0.163445
104 1 0.25 0.757154 0.108448
149 1 0.5 0.699689 0.163445
152 1 0.75 0.757154 0.108448
105 1 0.25 0.949689 0.163445
123 1 1.74769e-17 0.872177 0.11828
153 1 0.75 0.949689 0.163445
171 1 0.5 0.872177 0.11828
13 1 0.25 0.142091 0.218557
30 1 3.41948e-17 0.0646243 0.173176
37 1 0.25 0.00705467 0.227809
61 1 0.75 0.142091 0.218557
78 1 0.5 0.0646243 0.173176
85 1 0.75 0.00705467 0.227809
31 1 4.88341e-17 0.257055 0.227809
34 1 0.25 0.314624 0.173176
79 1 0.5 0.257055 0.227809
82 1 0.75 0.314624 0.173176
6 1 0 0.392091 0.218557
54 1 0.5 0.392091 0.218557
109 1 0.25 0.642091 0.218557
126 1 0 0.564624 0.173176
133 1 0.25 0.507055 0.227809
157 1 0.75 0.642091 0.218557
174 1 0.5 0.564624 0.173176
181 1 0.75 0.507055 0.227809
127 1 4.16389e-17 0.757055 0.227809
130 1 0.25 0.814624 0.173176
175 1 0.5 0.757055 0.227809
178 1 0.75 0.814624 0.173176
102 1 7.3366e-17 0.892091 0.218557
150 1 0.5 0.892091 0.218557
10 1 0 0.0845159 0.272914
17 1 0.25 0.0436077 0.332348
58 1 0.5 0.0845159 0.272914
65 1 0.75 0.0436077 0.332348
11 1 6.52908e-18 0.293608 0.332348
38 1 0.25 0.199479 0.283342
59 1 0.5 0.293608 0.332348
86 1 0.75 0.199479 0.283342
14 1 0.25 0.334516 0.272914
32 1 0 0.449479 0.283342
62 1 0.75 0.334516 0.272914
80 1 0.5 0.449479 0.283342
106 1 0 0.584516 0.272914
113 1 0.25 0.543608 0.332348
154 1 0.5 0.584516 0.272914
161 1 0.75 0.543608 0.332348
107 1 0 0.793608 0.332348
134 1 0.25 0.699479 0.283342
155 1 0.5 0.793608 0.332348
182 1 0.75 0.699479 0.283342
110 1 0.25 0.834516 0.272914
128 1 1 0.949479 0.283342
158 1 0.75 0.834516 0.272914
176 1 0.5 0.949479 0.283342
35 1 1.82552e-17 0.15857 0.342776
43 1 0.25 0.100995 0.397134
83 1 0.5 0.15857 0.342776
91 1 0.75 0.100995 0.397134
18 1 0.25 0.236032 0.387881
66 1 0.75 0.236032 0.387881
12 1 4.76406e-18 0.486032 0.387881
36 1 0 0.350995 0.397134
39 1 0.25 0.40857 0.342776
60 1 0.5 0.486032 0.387881
84 1 0.5 0.350995 0.397134
87 1 0.75 0.40857 0.342776
131 1 0 0.65857 0.342776
139 1 0.25 0.600995 0.397134
179 1 0.5 0.65857 0.342776
187 1 0.75 0.600995 0.397134
114 1 0.25 0.736032 0.387881
162 1 0.75 0.736032 0.387881
108 1 0 0.986032 0.387881
132 1 9.88134e-18 0.850995 0.397134
135 1 0.25 0.90857 0.342776
156 1 0.5 0.986032 0.387881
180 1 0.5 0.850995 0.397134
183 1 0.75 0.90857 0.342776
24 1 0.25 0.120909 0.49741
40 1 1 0.0433975 0.452246
72 1 0.75 0.120909 0.49741
88 1 0.5 0.0433975 0.452246
15 1 0 0.178462 0.442515
63 1 0.5 0.178462 0.442515
44 1 0.25 0.293398 0.452246
92 1 0.75 0.293398 0.452246
16 1 1.70474e-17 0.370909 0.49741
19 1 0.25 0.428462 0.442515
64 1 0.5 0.370909 0.49741
67 1 0.75 0.428462 0.442515
120 1 0.25 0.620909 0.49741
136 1 2.57553e-17 0.543398 0.452246
168 1 0.75 0.620909 0.49741
184 1 0.5 0.543398 0.452246
111 1 2.62312e-18 0.678462 0.442515
159 1 0.5 0.678462 0.442515
140 1 0.25 0.793398 0.452246
188 1 0.75 0.793398 0.452246
112 1 0 0.870909 0.49741
115 1 0.25 0.928462 0.442515
160 1 0.5 0.870909 0.49741
163 1 0.75 0.928462 0.442515
20 1 3.43753e-17 0.0630906 0.552618
68 1 0.5 0.0630906 0.552618
47 1 0.25 0.177992 0.561953
95 1 0.75 0.177992 0.561953
22 1 0.25 0.313091 0.552618
41 1 0 0.235932 0.507242
70 1 0.75 0.313091 0.552618
89 1 0.5 0.235932 0.507242
42 1 2.41617e-17 0.427992 0.561953
45 1 0.25 0.485932 0.507242
90 1 0.5 0.427992 0.561953
93 1 0.75 0.485932 0.507242
116 1 5.55776e-17 0.563091 0.552618
164 1 0.5 0.563091 0.552618
143 1 0.25 0.677992 0.561953
191 1 0.75 0.677992 0.561953
118 1 0.25 0.813091 0.552618
137 1 2.8427e-17 0.735932 0.507242
166 1 0.75 0.813091 0.552618
185 1 0.5 0.735932 0.507242
138 1 5.31328e-18 0.927992 0.561953
141 1 0.25 0.985932 0.507242
186 1 0.5 0.927992 0.561953
189 1 0.75 0.985932 0.507242
46 1 0 0.121692 0.615691
94 1 0.5 0.121692 0.615691
119 1 0.25 0.00626166 0.6065
167 1 0.75 0.00626166 0.6065
21 1 0 0.256262 0.6065
69 1 0.5 0.256262 0.6065
48 1 0.25 0.371692 0.615691
96 1 0.75 0.371692 0.615691
23 1 0.25 0.506262 0.6065
71 1 0.75 0.506262 0.6065
142 1 0 0.621692 0.615691
190 1 0.5 0.621692 0.615691
117 1 0 0.756262 0.6065
165 1 0.5 0.756262 0.6065
144 1 0.25 0.871692 0.615691
192 1 0.75 0.871692 0.615691
