ITEM: TIMESTEP
112
ITEM: NUMBER OF ATOMS
192
ITEM: BOX BOUNDS pp pp pp
0.0000000000000000e+00 7.1176886540000002e+00
0.0000000000000000e+00 2.5858194780409800e+01
0.0000000000000000e+00 4.8301037599330101e+01
ITEM: ATOMS id type xs ys zs
1 1 0 0.121395 0
7 1 0.25 0.0650943 0.0443002
49 1 0.5 0.121395 0
55 1 0.75 0.0650943 0.0443002
2 1 3.36001e-17 0.315094 0.0443002
26 1 0 0.179996 0.0544466
28 1 0.25 0.236825 0.00919034
50 1 0.5 0.315094 0.0443002
74 1 0.5 0.179996 0.0544466
76 1 0.75 0.236825 0.00919034
3 1 0.25 0.371395 0
25 1 0 0.486825 0.00919034
29 1 0.25 0.429996 0.0544466
51 1 0.75 0.371395 0
73 1 0.5 0.486825 0.00919034
77 1 0.75 0.429996 0.0544466
97 1 0 0.621395 0
103 1 0.25 0.565094 0.0443002
145 1 0.5 0.621395 0
151 1 0.75 0.565094 0.0443002
98 1 3.56679e-17 0.815094 0.0443002
122 1 4.00817e-17 0.679996 0.0544466
124 1 0.25 0.736825 0.00919034
146 1 0.5 0.815094 0.0443002
170 1 0.5 0.679996 0.0544466
172 1 0.75 0.736825 0.00919034
99 1 0.25 0.871395 0
121 1 0 0.986825 0.00919034
125 1 0.25 0.929996 0.0544466
147 1 0.75 0.871395 0
169 1 0.5 0.986825 0.00919034
173 1 0.75 0.929996 0.0544466
4 1 0 0.00715404 0.0900473
33 1 0.25 0.122177 0.101148
52 1 0.5 0.00715404 0.0900473
81 1 0.75 0.122177 0.101148
30 1 3.41948e-17 0.0646243 0.147413
78 1 0.5 0.0646243 0.147413
5 1 1 0.199689 0.136349
8 1 0.25 0.257154 0.0900473
53 1 0.5 0.199689 0.136349
56 1 0.75 0.257154 0.0900473
34 1 0.25 0.314624 0.147413
82 1 0.75 0.314624 0.147413
9 1 0.25 0.449689 0.136349
27 1 0 0.372177 0.101148
57 1 0.75 0.449689 0.136349
75 1 0.5 0.372177 0.101148
100 1 1.04306e-17 0.507154 0.0900473
129 1 0.25 0.622177 0.101148
148 1 0.5 0.507154 0.0900473
177 1 0.75 0.622177 0.101148
126 1 0 0.564624 0.147413
174 1 0.5 0.564624 0.147413
101 1 0 0.699689 0.136349
104 1 0.25 0.757154 0.0900473
149 1 0.5 0.699689 0.136349
152 1 0.75 0.757154 0.0900473
130 1 0.25 0.814624 0.147413
178 1 0.75 0.814624 0.147413
105 1 0.25 0.949689 0.136349
123 1 1.74769e-17 0.872177 0.101148
153 1 0.75 0.949689 0.136349
171 1 0.5 0.872177 0.101148
13 1 0.25 0.142091 0.182981
37 1 0.25 0.00705467 0.193238
61 1 0.75 0.142091 0.182981
85 1 0.75 0.00705467 0.193238
10 1 0 0.0845159 0.228513
58 1 0.5 0.0845159 0.228513
31 1 4.88341e-17 0.257055 0.193238
79 1 0.5 0.257055 0.193238
38 1 0.25 0.199479 0.237385
86 1 0.75 0.199479 0.237385
6 1 0 0.392091 0.182981
54 1 0.5 0.392091 0.182981
14 1 0.25 0.334516 0.228513
32 1 0 0.449479 0.237385
62 1 0.75 0.334516 0.228513
80 1 0.5 0.449479 0.237385
109 1 0.25 0.642091 0.182981
133 1 0.25 0.507055 0.193238
157 1 0.75 0.642091 0.182981
181 1 0.75 0.507055 0.193238
106 1 0 0.584516 0.228513
154 1 0.5 0.584516 0.228513
127 1 4.16389e-17 0.757055 0.193238
175 1 0.5 0.757055 0.193238
134 1 0.25 0.699479 0.237385
182 1 0.75 0.699479 0.237385
102 1 7.3366e-17 0.892091 0.182981
150 1 0.5 0.892091 0.182981
110 1 0.25 0.834516 0.228513
128 1 1 0.949479 0.237385
158 1 0.75 0.834516 0.228513
176 1 0.5 0.949479 0.237385
17 1 0.25 0.126941 0.378306
65 1 0.75 0.126941 0.378306
35 1 1.82552e-17 0.241904 0.387178
83 1 0.5 0.241904 0.387178
11 1 6.52908e-18 0.376941 0.378306
59 1 0.5 0.376941 0.378306
39 1 0.25 0.491904 0.387178
87 1 0.75 0.491904 0.387178
113 1 0.25 0.626941 0.378306
161 1 0.75 0.626941 0.378306
131 1 0 0.741904 0.387178
179 1 0.5 0.741904 0.387178
107 1 0 0.876941 0.378306
155 1 0.5 0.876941 0.378306
135 1 0.25 0.991904 0.387178
183 1 0.75 0.991904 0.387178
108 1 0 0.0693649 0.422452
156 1 0.5 0.0693649 0.422452
40 1 1 0.126731 0.479342
88 1 0.5 0.126731 0.479342
115 1 0.25 0.0117953 0.468278
163 1 0.75 0.0117953 0.468278
43 1 0.25 0.184329 0.43271
91 1 0.75 0.184329 0.43271
18 1 0.25 0.319365 0.422452
66 1 0.75 0.319365 0.422452
15 1 0 0.261795 0.468278
63 1 0.5 0.261795 0.468278
36 1 0 0.434329 0.43271
84 1 0.5 0.434329 0.43271
44 1 0.25 0.376731 0.479342
92 1 0.75 0.376731 0.479342
19 1 0.25 0.511795 0.468278
67 1 0.75 0.511795 0.468278
12 1 4.76406e-18 0.569365 0.422452
60 1 0.5 0.569365 0.422452
136 1 2.57553e-17 0.626731 0.479342
184 1 0.5 0.626731 0.479342
139 1 0.25 0.684329 0.43271
187 1 0.75 0.684329 0.43271
114 1 0.25 0.819365 0.422452
162 1 0.75 0.819365 0.422452
111 1 2.62312e-18 0.761795 0.468278
159 1 0.5 0.761795 0.468278
132 1 9.88134e-18 0.934329 0.43271
180 1 0.5 0.934329 0.43271
140 1 0.25 0.876731 0.479342
188 1 0.75 0.876731 0.479342
20 1 3.43753e-17 0.146424 0.561244
68 1 0.5 0.146424 0.561244
141 1 0.25 0.0692657 0.525643
189 1 0.75 0.0692657 0.525643
138 1 5.31328e-18 0.0113256 0.57139
186 1 0.5 0.0113256 0.57139
24 1 0.25 0.204242 0.514542
72 1 0.75 0.204242 0.514542
47 1 0.25 0.261326 0.57139
95 1 0.75 0.261326 0.57139
41 1 0 0.319266 0.525643
89 1 0.5 0.319266 0.525643
16 1 1.70474e-17 0.454242 0.514542
64 1 0.5 0.454242 0.514542
22 1 0.25 0.396424 0.561244
70 1 0.75 0.396424 0.561244
42 1 2.41617e-17 0.511326 0.57139
90 1 0.5 0.511326 0.57139
45 1 0.25 0.569266 0.525643
93 1 0.75 0.569266 0.525643
116 1 5.55776e-17 0.646424 0.561244
164 1 0.5 0.646424 0.561244
120 1 0.25 0.704242 0.514542
168 1 0.75 0.704242 0.514542
143 1 0.25 0.761326 0.57139
191 1 0.75 0.761326 0.57139
137 1 2.8427e-17 0.819266 0.525643
185 1 0.5 0.819266 0.525643
112 1 0 0.954242 0.514542
160 1 0.5 0.954242 0.514542
118 1 0.25 0.896424 0.561244
166 1 0.75 0.896424 0.561244
119 1 0.25 0.089595 0.6065
167 1 0.75 0.089595 0.6065
46 1 0 0.205025 0.615691
94 1 0.5 0.205025 0.615691
21 1 0 0.339595 0.6065
69 1 0.5 0.339595 0.6065
48 1 0.25 0.455025 0.615691
96 1 0.75 0.455025 0.615691
23 1 0.25 0.589595 0.6065
71 1 0.75 0.589595 0.6065
142 1 0 0.705025 0.615691
190 1 0.5 0.705025 0.615691
117 1 0 0.839595 0.6065
165 1 0.5 0.839595 0.6065
144 1 0.25 0.955025 0.615691
192 1 0.75 0.955025 0.615691
