ITEM: TIMESTEP
166
ITEM: NUMBER OF ATOMS
192
ITEM: BOX BOUNDS pp pp pp
0.0000000000000000e+00 7.1176886540000002e+00
0.0000000000000000e+00 2.5858194780409800e+01
0.0000000000000000e+00 4.8301037599330101e+01
ITEM: ATOMS id type xs ys zs
1 1 0 0.121395 0
7 1 0.25 0.0650943 0.0444223
49 1 0.5 0.121395 0
55 1 0.75 0.0650943 0.0444223
2 1 3.36001e-17 0.315094 0.0444223
26 1 0 0.179996 0.0545204
28 1 0.25 0.236825 0.00919034
50 1 0.5 0.315094 0.0444223
74 1 0.5 0.179996 0.0545204
76 1 0.75 0.236825 0.00919034
3 1 0.25 0.371395 0
25 1 0 0.486825 0.00919034
29 1 0.25 0.429996 0.0545204
51 1 0.75 0.371395 0
73 1 0.5 0.486825 0.00919034
77 1 0.75 0.429996 0.0545204
97 1 0 0.621395 0
103 1 0.25 0.565094 0.0444223
145 1 0.5 0.621395 0
151 1 0.75 0.565094 0.0444223
98 1 3.56679e-17 0.815094 0.0444223
122 1 4.00817e-17 0.679996 0.0545204
124 1 0.25 0.736825 0.00919034
146 1 0.5 0.815094 0.0444223
170 1 0.5 0.679996 0.0545204
172 1 0.75 0.736825 0.00919034
99 1 0.25 0.871395 0
121 1 0 0.986825 0.00919034
125 1 0.25 0.929996 0.0545204
147 1 0.75 0.871395 0
169 1 0.5 0.986825 0.00919034
173 1 0.75 0.929996 0.0545204
4 1 0 0.00715404 0.090355
33 1 0.25 0.122177 0.101397
52 1 0.5 0.00715404 0.090355
81 1 0.75 0.122177 0.101397
30 1 3.41948e-17 0.0646243 0.147838
78 1 0.5 0.0646243 0.147838
5 1 1 0.199689 0.136824
8 1 0.25 0.257154 0.090355
53 1 0.5 0.199689 0.136824
56 1 0.75 0.257154 0.090355
34 1 0.25 0.314624 0.147838
82 1 0.75 0.314624 0.147838
9 1 0.25 0.449689 0.136824
27 1 0 0.372177 0.101397
57 1 0.75 0.449689 0.136824
75 1 0.5 0.372177 0.101397
100 1 1.04306e-17 0.507154 0.090355
129 1 0.25 0.622177 0.101397
148 1 0.5 0.507154 0.090355
177 1 0.75 0.622177 0.101397
126 1 0 0.564624 0.147838
174 1 0.5 0.564624 0.147838
101 1 0 0.699689 0.136824
104 1 0.25 0.757154 0.090355
149 1 0.5 0.699689 0.136824
152 1 0.75 0.757154 0.090355
130 1 0.25 0.814624 0.147838
178 1 0.75 0.814624 0.147838
105 1 0.25 0.949689 0.136824
123 1 1.74769e-17 0.872177 0.101397
153 1 0.75 0.949689 0.136824
171 1 0.5 0.872177 0.101397
13 1 0.25 0.142091 0.183631
37 1 0.25 0.00705467 0.19384
61 1 0.75 0.142091 0.183631
85 1 0.75 0.00705467 0.19384
10 1 0 0.0845159 0.229204
58 1 0.5 0.0845159 0.229204
31 1 4.88341e-17 0.257055 0.19384
79 1 0.5 0.257055 0.19384
38 1 0.25 0.199479 0.238124
86 1 0.75 0.199479 0.238124
6 1 0 0.392091 0.183631
54 1 0.5 0.392091 0.183631
14 1 0.25 0.334516 0.229204
32 1 0 0.449479 0.238124
62 1 0.75 0.334516 0.229204
80 1 0.5 0.449479 0.238124
109 1 0.25 0.642091 0.183631
133 1 0.25 0.507055 0.19384
157 1 0.75 0.642091 0.183631
181 1 0.75 0.507055 0.19384
106 1 0 0.584516 0.229204
154 1 0.5 0.584516 0.229204
127 1 4.16389e-17 0.757055 0.19384
175 1 0.5 0.757055 0.19384
134 1 0.25 0.699479 0.238124
182 1 0.75 0.699479 0.238124
102 1 7.3366e-17 0.892091 0.183631
150 1 0.5 0.892091 0.183631
110 1 0.25 0.834516 0.229204
128 1 1 0.949479 0.238124
158 1 0.75 0.834516 0.229204
176 1 0.5 0.949479 0.238124
135 1 0.25 0.0919037 0.386486
183 1 0.75 0.0919037 0.386486
17 1 0.25 0.226941 0.377566
65 1 0.75 0.226941 0.377566
35 1 1.82552e-17 0.341904 0.386486
83 1 0.5 0.341904 0.386486
11 1 6.52908e-18 0.476941 0.377566
59 1 0.5 0.476941 0.377566
39 1 0.25 0.591904 0.386486
87 1 0.75 0.591904 0.386486
113 1 0.25 0.726941 0.377566
161 1 0.75 0.726941 0.377566
131 1 0 0.841904 0.386486
179 1 0.5 0.841904 0.386486
107 1 0 0.976941 0.377566
155 1 0.5 0.976941 0.377566
115 1 0.25 0.111795 0.467853
163 1 0.75 0.111795 0.467853
132 1 9.88134e-18 0.0343285 0.432059
180 1 0.5 0.0343285 0.432059
108 1 0 0.169365 0.42185
156 1 0.5 0.169365 0.42185
40 1 1 0.226731 0.478867
88 1 0.5 0.226731 0.478867
43 1 0.25 0.284329 0.432059
91 1 0.75 0.284329 0.432059
15 1 0 0.361795 0.467853
63 1 0.5 0.361795 0.467853
18 1 0.25 0.419365 0.42185
66 1 0.75 0.419365 0.42185
44 1 0.25 0.476731 0.478867
92 1 0.75 0.476731 0.478867
36 1 0 0.534329 0.432059
84 1 0.5 0.534329 0.432059
19 1 0.25 0.611795 0.467853
67 1 0.75 0.611795 0.467853
12 1 4.76406e-18 0.669365 0.42185
60 1 0.5 0.669365 0.42185
136 1 2.57553e-17 0.726731 0.478867
184 1 0.5 0.726731 0.478867
139 1 0.25 0.784329 0.432059
187 1 0.75 0.784329 0.432059
111 1 2.62312e-18 0.861795 0.467853
159 1 0.5 0.861795 0.467853
114 1 0.25 0.919365 0.42185
162 1 0.75 0.919365 0.42185
140 1 0.25 0.976731 0.478867
188 1 0.75 0.976731 0.478867
138 1 5.31328e-18 0.111326 0.571268
186 1 0.5 0.111326 0.571268
112 1 0 0.0542424 0.514294
160 1 0.5 0.0542424 0.514294
141 1 0.25 0.169266 0.525336
189 1 0.75 0.169266 0.525336
20 1 3.43753e-17 0.246424 0.56117
68 1 0.5 0.246424 0.56117
24 1 0.25 0.304242 0.514294
72 1 0.75 0.304242 0.514294
47 1 0.25 0.361326 0.571268
95 1 0.75 0.361326 0.571268
41 1 0 0.419266 0.525336
89 1 0.5 0.419266 0.525336
22 1 0.25 0.496424 0.56117
70 1 0.75 0.496424 0.56117
16 1 1.70474e-17 0.554242 0.514294
64 1 0.5 0.554242 0.514294
42 1 2.41617e-17 0.611326 0.571268
90 1 0.5 0.611326 0.571268
45 1 0.25 0.669266 0.525336
93 1 0.75 0.669266 0.525336
116 1 5.55776e-17 0.746424 0.56117
164 1 0.5 0.746424 0.56117
120 1 0.25 0.804242 0.514294
168 1 0.75 0.804242 0.514294
143 1 0.25 0.861326 0.571268
191 1 0.75 0.861326 0.571268
137 1 2.8427e-17 0.919266 0.525336
185 1 0.5 0.919266 0.525336
118 1 0.25 0.996424 0.56117
166 1 0.75 0.996424 0.56117
144 1 0.25 0.055025 0.615691
192 1 0.75 0.055025 0.615691
119 1 0.25 0.189595 0.6065
167 1 0.75 0.189595 0.6065
46 1 0 0.305025 0.615691
94 1 0.5 0.305025 0.615691
21 1 0 0.439595 0.6065
69 1 0.5 0.439595 0.6065
48 1 0.25 0.555025 0.615691
96 1 0.75 0.555025 0.615691
23 1 0.25 0.689595 0.6065
71 1 0.75 0.689595 0.6065
142 1 0 0.805025 0.615691
190 1 0.5 0.805025 0.615691
117 1 0 0.939595 0.6065
165 1 0.5 0.939595 0.6065
