ITEM: TIMESTEP
280
ITEM: NUMBER OF ATOMS
48
ITEM: BOX BOUNDS pp pp pp
0.0000000000000000e+00 2.9505999088000001e+00
0.0000000000000000e+00 1.0662213269878100e+01
0.0000000000000000e+00 4.3042699813799999e+01
ITEM: ATOMS id type xs ys zs
1 1 0 0.24279 0
7 1 0.5 0.137017 0.048976
26 1 0 0.366753 0.0578388
28 1 0.5 0.47365 0.00868461
2 1 8.17206e-17 0.637017 0.048976
3 1 0.5 0.74279 0
25 1 0 0.97365 0.00868461
29 1 0.5 0.866753 0.0578388
4 1 1 0.0185161 0.102973
5 1 1 0.402243 0.155156
30 1 1.05805e-16 0.133585 0.163626
33 1 0.5 0.250037 0.111361
8 1 0.5 0.518516 0.102973
9 1 0.5 0.902243 0.155156
27 1 1.07665e-16 0.750037 0.111361
34 1 0.5 0.633585 0.163626
10 1 2.22028e-17 0.169003 0.260402
13 1 0.5 0.285518 0.207817
37 1 0.5 0.0168956 0.216253
38 1 0.5 0.400396 0.268822
6 1 2.21384e-17 0.785518 0.207817
14 1 0.5 0.669003 0.260402
31 1 5.75118e-17 0.516896 0.216253
32 1 7.57478e-18 0.900396 0.268822
35 1 1.54604e-16 0.283836 0.321408
17 1 0.5 0.052443 0.312989
11 1 1 0.552443 0.312989
39 1 0.5 0.783836 0.321408
18 1 0.5 0.435944 0.365558
15 1 1 0.319255 0.418184
43 1 0.5 0.167321 0.373994
40 1 1 0.0505962 0.426655
44 1 0.5 0.550596 0.426655
36 1 2.27648e-16 0.667321 0.373994
19 1 0.5 0.819255 0.418184
12 1 6.873e-17 0.935944 0.365558
41 1 9.31234e-17 0.434323 0.478838
47 1 0.5 0.315823 0.532834
24 1 0.5 0.202803 0.470449
20 1 1 0.0860865 0.523972
22 1 0.5 0.586086 0.523972
16 1 0 0.702803 0.470449
42 1 0 0.815823 0.532834
45 1 0.5 0.934323 0.478838
21 1 0 0.47919 0.573126
46 1 0 0.21005 0.58181
48 1 0.5 0.71005 0.58181
23 1 0.5 0.97919 0.573126
