ITEM: TIMESTEP
228
ITEM: NUMBER OF ATOMS
48
ITEM: BOX BOUNDS pp pp pp
0.0000000000000000e+00 2.9505999088000001e+00
0.0000000000000000e+00 1.0662213269878100e+01
0.0000000000000000e+00 4.3042699813799999e+01
ITEM: ATOMS id type xs ys zs
1 1 0 0.24279 0
7 1 0.5 0.137017 0.0482619
26 1 0 0.366753 0.0571831
28 1 0.5 0.47365 0.00868461
2 1 8.17206e-17 0.637017 0.0482619
3 1 0.5 0.74279 0
25 1 0 0.97365 0.00868461
29 1 0.5 0.866753 0.0571831
4 1 1 0.0185161 0.101399
5 1 1 0.402243 0.152975
30 1 1.05805e-16 0.133585 0.1613
33 1 0.5 0.250037 0.109945
8 1 0.5 0.518516 0.101399
9 1 0.5 0.902243 0.152975
27 1 1.07665e-16 0.750037 0.109945
34 1 0.5 0.633585 0.1613
10 1 2.22028e-17 0.169003 0.258337
13 1 0.5 0.285518 0.205758
37 1 0.5 0.0168956 0.212994
38 1 0.5 0.400396 0.263458
6 1 2.21384e-17 0.785518 0.205758
14 1 0.5 0.669003 0.258337
31 1 5.75118e-17 0.516896 0.212994
32 1 7.57478e-18 0.900396 0.263458
11 1 1 0.352443 0.318352
35 1 1.54604e-16 0.0838357 0.323474
39 1 0.5 0.583836 0.323474
17 1 0.5 0.852443 0.318352
36 1 2.27648e-16 0.467321 0.376052
44 1 0.5 0.350596 0.428835
18 1 0.5 0.235944 0.368816
15 1 1 0.119255 0.420511
19 1 0.5 0.619255 0.420511
12 1 6.873e-17 0.735944 0.368816
40 1 1 0.850596 0.428835
43 1 0.5 0.967321 0.376052
22 1 0.5 0.386086 0.524627
41 1 9.31234e-17 0.234323 0.480411
47 1 0.5 0.115823 0.533549
24 1 0.5 0.00280266 0.471865
16 1 0 0.502803 0.471865
42 1 0 0.615823 0.533549
45 1 0.5 0.734323 0.480411
20 1 1 0.886086 0.524627
21 1 0 0.27919 0.573126
46 1 0 0.01005 0.58181
48 1 0.5 0.51005 0.58181
23 1 0.5 0.77919 0.573126
