ITEM: TIMESTEP
217
ITEM: NUMBER OF ATOMS
192
ITEM: BOX BOUNDS pp pp pp
0.0000000000000000e+00 7.1176886540000002e+00
0.0000000000000000e+00 2.5858194780409800e+01
0.0000000000000000e+00 4.8301037599330101e+01
ITEM: ATOMS id type xs ys zs
1 1 0 0.121395 0
7 1 0.25 0.0650943 0.0442741
49 1 0.5 0.121395 0
55 1 0.75 0.0650943 0.0442741
2 1 3.36001e-17 0.315094 0.0442741
26 1 0 0.179996 0.0544316
28 1 0.25 0.236825 0.00919034
50 1 0.5 0.315094 0.0442741
74 1 0.5 0.179996 0.0544316
76 1 0.75 0.236825 0.00919034
3 1 0.25 0.371395 0
25 1 0 0.486825 0.00919034
29 1 0.25 0.429996 0.0544316
51 1 0.75 0.371395 0
73 1 0.5 0.486825 0.00919034
77 1 0.75 0.429996 0.0544316
97 1 0 0.621395 0
103 1 0.25 0.565094 0.0442741
145 1 0.5 0.621395 0
151 1 0.75 0.565094 0.0442741
98 1 3.56679e-17 0.815094 0.0442741
122 1 4.00817e-17 0.679996 0.0544316
124 1 0.25 0.736825 0.00919034
146 1 0.5 0.815094 0.0442741
170 1 0.5 0.679996 0.0544316
172 1 0.75 0.736825 0.00919034
99 1 0.25 0.871395 0
121 1 0 0.986825 0.00919034
125 1 0.25 0.929996 0.0544316
147 1 0.75 0.871395 0
169 1 0.5 0.986825 0.00919034
173 1 0.75 0.929996 0.0544316
4 1 0 0.00715404 0.0899805
33 1 0.25 0.122177 0.101096
52 1 0.5 0.00715404 0.0899805
81 1 0.75 0.122177 0.101096
30 1 3.41948e-17 0.0646243 0.14732
78 1 0.5 0.0646243 0.14732
5 1 1 0.199689 0.136244
8 1 0.25 0.257154 0.0899805
53 1 0.5 0.199689 0.136244
56 1 0.75 0.257154 0.0899805
34 1 0.25 0.314624 0.14732
82 1 0.75 0.314624 0.14732
9 1 0.25 0.449689 0.136244
27 1 0 0.372177 0.101096
57 1 0.75 0.449689 0.136244
75 1 0.5 0.372177 0.101096
100 1 1.04306e-17 0.507154 0.0899805
129 1 0.25 0.622177 0.101096
148 1 0.5 0.507154 0.0899805
177 1 0.75 0.622177 0.101096
126 1 0 0.564624 0.14732
174 1 0.5 0.564624 0.14732
101 1 0 0.699689 0.136244
104 1 0.25 0.757154 0.0899805
149 1 0.5 0.699689 0.136244
152 1 0.75 0.757154 0.0899805
130 1 0.25 0.814624 0.14732
178 1 0.75 0.814624 0.14732
105 1 0.25 0.949689 0.136244
123 1 1.74769e-17 0.872177 0.101096
153 1 0.75 0.949689 0.136244
171 1 0.5 0.872177 0.101096
13 1 0.25 0.142091 0.182838
37 1 0.25 0.00705467 0.193107
61 1 0.75 0.142091 0.182838
85 1 0.75 0.00705467 0.193107
10 1 0 0.0845159 0.228358
58 1 0.5 0.0845159 0.228358
31 1 4.88341e-17 0.257055 0.193107
79 1 0.5 0.257055 0.193107
38 1 0.25 0.199479 0.237226
86 1 0.75 0.199479 0.237226
6 1 0 0.392091 0.182838
54 1 0.5 0.392091 0.182838
14 1 0.25 0.334516 0.228358
32 1 0 0.449479 0.237226
62 1 0.75 0.334516 0.228358
80 1 0.5 0.449479 0.237226
109 1 0.25 0.642091 0.182838
133 1 0.25 0.507055 0.193107
157 1 0.75 0.642091 0.182838
181 1 0.75 0.507055 0.193107
106 1 0 0.584516 0.228358
154 1 0.5 0.584516 0.228358
127 1 4.16389e-17 0.757055 0.193107
175 1 0.5 0.757055 0.193107
134 1 0.25 0.699479 0.237226
182 1 0.75 0.699479 0.237226
102 1 7.3366e-17 0.892091 0.182838
150 1 0.5 0.892091 0.182838
110 1 0.25 0.834516 0.228358
128 1 1 0.949479 0.237226
158 1 0.75 0.834516 0.228358
176 1 0.5 0.949479 0.237226
107 1 0 0.076941 0.378464
155 1 0.5 0.076941 0.378464
135 1 0.25 0.191904 0.387332
183 1 0.75 0.191904 0.387332
17 1 0.25 0.326941 0.378464
65 1 0.75 0.326941 0.378464
35 1 1.82552e-17 0.441904 0.387332
83 1 0.5 0.441904 0.387332
11 1 6.52908e-18 0.576941 0.378464
59 1 0.5 0.576941 0.378464
39 1 0.25 0.691904 0.387332
87 1 0.75 0.691904 0.387332
113 1 0.25 0.826941 0.378464
161 1 0.75 0.826941 0.378464
131 1 0 0.941904 0.387332
179 1 0.5 0.941904 0.387332
132 1 9.88134e-18 0.134329 0.432853
180 1 0.5 0.134329 0.432853
140 1 0.25 0.0767309 0.479446
188 1 0.75 0.0767309 0.479446
114 1 0.25 0.0193649 0.422583
162 1 0.75 0.0193649 0.422583
115 1 0.25 0.211795 0.46837
163 1 0.75 0.211795 0.46837
108 1 0 0.269365 0.422583
156 1 0.5 0.269365 0.422583
40 1 1 0.326731 0.479446
88 1 0.5 0.326731 0.479446
43 1 0.25 0.384329 0.432853
91 1 0.75 0.384329 0.432853
15 1 0 0.461795 0.46837
63 1 0.5 0.461795 0.46837
18 1 0.25 0.519365 0.422583
66 1 0.75 0.519365 0.422583
44 1 0.25 0.576731 0.479446
92 1 0.75 0.576731 0.479446
36 1 0 0.634329 0.432853
84 1 0.5 0.634329 0.432853
19 1 0.25 0.711795 0.46837
67 1 0.75 0.711795 0.46837
12 1 4.76406e-18 0.769365 0.422583
60 1 0.5 0.769365 0.422583
136 1 2.57553e-17 0.826731 0.479446
184 1 0.5 0.826731 0.479446
139 1 0.25 0.884329 0.432853
187 1 0.75 0.884329 0.432853
111 1 2.62312e-18 0.961795 0.46837
159 1 0.5 0.961795 0.46837
112 1 0 0.154242 0.514595
160 1 0.5 0.154242 0.514595
118 1 0.25 0.096424 0.561259
166 1 0.75 0.096424 0.561259
137 1 2.8427e-17 0.0192657 0.52571
185 1 0.5 0.0192657 0.52571
138 1 5.31328e-18 0.211326 0.571416
186 1 0.5 0.211326 0.571416
141 1 0.25 0.269266 0.52571
189 1 0.75 0.269266 0.52571
20 1 3.43753e-17 0.346424 0.561259
68 1 0.5 0.346424 0.561259
24 1 0.25 0.404242 0.514595
72 1 0.75 0.404242 0.514595
47 1 0.25 0.461326 0.571416
95 1 0.75 0.461326 0.571416
41 1 0 0.519266 0.52571
89 1 0.5 0.519266 0.52571
22 1 0.25 0.596424 0.561259
70 1 0.75 0.596424 0.561259
16 1 1.70474e-17 0.654242 0.514595
64 1 0.5 0.654242 0.514595
42 1 2.41617e-17 0.711326 0.571416
90 1 0.5 0.711326 0.571416
45 1 0.25 0.769266 0.52571
93 1 0.75 0.769266 0.52571
116 1 5.55776e-17 0.846424 0.561259
164 1 0.5 0.846424 0.561259
120 1 0.25 0.904242 0.514595
168 1 0.75 0.904242 0.514595
143 1 0.25 0.961326 0.571416
191 1 0.75 0.961326 0.571416
144 1 0.25 0.155025 0.615691
192 1 0.75 0.155025 0.615691
117 1 0 0.039595 0.6065
165 1 0.5 0.039595 0.6065
119 1 0.25 0.289595 0.6065
167 1 0.75 0.289595 0.6065
46 1 0 0.405025 0.615691
94 1 0.5 0.405025 0.615691
21 1 0 0.539595 0.6065
69 1 0.5 0.539595 0.6065
48 1 0.25 0.655025 0.615691
96 1 0.75 0.655025 0.615691
23 1 0.25 0.789595 0.6065
71 1 0.75 0.789595 0.6065
142 1 0 0.905025 0.615691
190 1 0.5 0.905025 0.615691
