ITEM: TIMESTEP
232
ITEM: NUMBER OF ATOMS
192
ITEM: BOX BOUNDS pp pp pp
0.0000000000000000e+00 7.1176886540000002e+00
0.0000000000000000e+00 2.5858194780409800e+01
0.0000000000000000e+00 4.8301037599330101e+01
ITEM: ATOMS id type xs ys zs
1 1 0 0.121395 0
7 1 0.25 0.0650943 0.0442698
49 1 0.5 0.121395 0
55 1 0.75 0.0650943 0.0442698
2 1 3.36001e-17 0.315094 0.0442698
26 1 0 0.179996 0.0544291
28 1 0.25 0.236825 0.00919034
50 1 0.5 0.315094 0.0442698
74 1 0.5 0.179996 0.0544291
76 1 0.75 0.236825 0.00919034
3 1 0.25 0.371395 0
25 1 0 0.486825 0.00919034
29 1 0.25 0.429996 0.0544291
51 1 0.75 0.371395 0
73 1 0.5 0.486825 0.00919034
77 1 0.75 0.429996 0.0544291
97 1 0 0.621395 0
103 1 0.25 0.565094 0.0442698
145 1 0.5 0.621395 0
151 1 0.75 0.565094 0.0442698
98 1 3.56679e-17 0.815094 0.0442698
122 1 4.00817e-17 0.679996 0.0544291
124 1 0.25 0.736825 0.00919034
146 1 0.5 0.815094 0.0442698
170 1 0.5 0.679996 0.0544291
172 1 0.75 0.736825 0.00919034
99 1 0.25 0.871395 0
121 1 0 0.986825 0.00919034
125 1 0.25 0.929996 0.0544291
147 1 0.75 0.871395 0
169 1 0.5 0.986825 0.00919034
173 1 0.75 0.929996 0.0544291
4 1 0 0.00715404 0.0899689
33 1 0.25 0.122177 0.101086
52 1 0.5 0.00715404 0.0899689
81 1 0.75 0.122177 0.101086
30 1 3.41948e-17 0.0646243 0.147304
78 1 0.5 0.0646243 0.147304
5 1 1 0.199689 0.136227
8 1 0.25 0.257154 0.0899689
53 1 0.5 0.199689 0.136227
56 1 0.75 0.257154 0.0899689
34 1 0.25 0.314624 0.147304
82 1 0.75 0.314624 0.147304
9 1 0.25 0.449689 0.136227
27 1 0 0.372177 0.101086
57 1 0.75 0.449689 0.136227
75 1 0.5 0.372177 0.101086
100 1 1.04306e-17 0.507154 0.0899689
129 1 0.25 0.622177 0.101086
148 1 0.5 0.507154 0.0899689
177 1 0.75 0.622177 0.101086
126 1 0 0.564624 0.147304
174 1 0.5 0.564624 0.147304
101 1 0 0.699689 0.136227
104 1 0.25 0.757154 0.0899689
149 1 0.5 0.699689 0.136227
152 1 0.75 0.757154 0.0899689
130 1 0.25 0.814624 0.147304
178 1 0.75 0.814624 0.147304
105 1 0.25 0.949689 0.136227
123 1 1.74769e-17 0.872177 0.101086
153 1 0.75 0.949689 0.136227
171 1 0.5 0.872177 0.101086
13 1 0.25 0.142091 0.182814
37 1 0.25 0.00705467 0.193085
61 1 0.75 0.142091 0.182814
85 1 0.75 0.00705467 0.193085
10 1 0 0.0845159 0.228333
58 1 0.5 0.0845159 0.228333
31 1 4.88341e-17 0.257055 0.193085
79 1 0.5 0.257055 0.193085
38 1 0.25 0.199479 0.237198
86 1 0.75 0.199479 0.237198
6 1 0 0.392091 0.182814
54 1 0.5 0.392091 0.182814
14 1 0.25 0.334516 0.228333
32 1 0 0.449479 0.237198
62 1 0.75 0.334516 0.228333
80 1 0.5 0.449479 0.237198
109 1 0.25 0.642091 0.182814
133 1 0.25 0.507055 0.193085
157 1 0.75 0.642091 0.182814
181 1 0.75 0.507055 0.193085
106 1 0 0.584516 0.228333
154 1 0.5 0.584516 0.228333
127 1 4.16389e-17 0.757055 0.193085
175 1 0.5 0.757055 0.193085
134 1 0.25 0.699479 0.237198
182 1 0.75 0.699479 0.237198
102 1 7.3366e-17 0.892091 0.182814
150 1 0.5 0.892091 0.182814
110 1 0.25 0.834516 0.228333
128 1 1 0.949479 0.237198
158 1 0.75 0.834516 0.228333
176 1 0.5 0.949479 0.237198
107 1 0 0.126941 0.378492
155 1 0.5 0.126941 0.378492
135 1 0.25 0.241904 0.387357
183 1 0.75 0.241904 0.387357
17 1 0.25 0.376941 0.378492
65 1 0.75 0.376941 0.378492
35 1 1.82552e-17 0.491904 0.387357
83 1 0.5 0.491904 0.387357
11 1 6.52908e-18 0.626941 0.378492
59 1 0.5 0.626941 0.378492
39 1 0.25 0.741904 0.387357
87 1 0.75 0.741904 0.387357
113 1 0.25 0.876941 0.378492
161 1 0.75 0.876941 0.378492
131 1 0 0.991904 0.387357
179 1 0.5 0.991904 0.387357
140 1 0.25 0.126731 0.479463
188 1 0.75 0.126731 0.479463
114 1 0.25 0.0693649 0.422606
162 1 0.75 0.0693649 0.422606
111 1 2.62312e-18 0.0117953 0.468386
159 1 0.5 0.0117953 0.468386
132 1 9.88134e-18 0.184329 0.432877
180 1 0.5 0.184329 0.432877
115 1 0.25 0.261795 0.468386
163 1 0.75 0.261795 0.468386
108 1 0 0.319365 0.422606
156 1 0.5 0.319365 0.422606
40 1 1 0.376731 0.479463
88 1 0.5 0.376731 0.479463
43 1 0.25 0.434329 0.432877
91 1 0.75 0.434329 0.432877
15 1 0 0.511795 0.468386
63 1 0.5 0.511795 0.468386
18 1 0.25 0.569365 0.422606
66 1 0.75 0.569365 0.422606
44 1 0.25 0.626731 0.479463
92 1 0.75 0.626731 0.479463
36 1 0 0.684329 0.432877
84 1 0.5 0.684329 0.432877
19 1 0.25 0.761795 0.468386
67 1 0.75 0.761795 0.468386
12 1 4.76406e-18 0.819365 0.422606
60 1 0.5 0.819365 0.422606
136 1 2.57553e-17 0.876731 0.479463
184 1 0.5 0.876731 0.479463
139 1 0.25 0.934329 0.432877
187 1 0.75 0.934329 0.432877
118 1 0.25 0.146424 0.561261
166 1 0.75 0.146424 0.561261
137 1 2.8427e-17 0.0692657 0.525722
185 1 0.5 0.0692657 0.525722
143 1 0.25 0.0113256 0.571421
191 1 0.75 0.0113256 0.571421
112 1 0 0.204242 0.514605
160 1 0.5 0.204242 0.514605
138 1 5.31328e-18 0.261326 0.571421
186 1 0.5 0.261326 0.571421
141 1 0.25 0.319266 0.525722
189 1 0.75 0.319266 0.525722
20 1 3.43753e-17 0.396424 0.561261
68 1 0.5 0.396424 0.561261
24 1 0.25 0.454242 0.514605
72 1 0.75 0.454242 0.514605
47 1 0.25 0.511326 0.571421
95 1 0.75 0.511326 0.571421
41 1 0 0.569266 0.525722
89 1 0.5 0.569266 0.525722
22 1 0.25 0.646424 0.561261
70 1 0.75 0.646424 0.561261
16 1 1.70474e-17 0.704242 0.514605
64 1 0.5 0.704242 0.514605
42 1 2.41617e-17 0.761326 0.571421
90 1 0.5 0.761326 0.571421
45 1 0.25 0.819266 0.525722
93 1 0.75 0.819266 0.525722
116 1 5.55776e-17 0.896424 0.561261
164 1 0.5 0.896424 0.561261
120 1 0.25 0.954242 0.514605
168 1 0.75 0.954242 0.514605
117 1 0 0.089595 0.6065
165 1 0.5 0.089595 0.6065
144 1 0.25 0.205025 0.615691
192 1 0.75 0.205025 0.615691
119 1 0.25 0.339595 0.6065
167 1 0.75 0.339595 0.6065
46 1 0 0.455025 0.615691
94 1 0.5 0.455025 0.615691
21 1 0 0.589595 0.6065
69 1 0.5 0.589595 0.6065
48 1 0.25 0.705025 0.615691
96 1 0.75 0.705025 0.615691
23 1 0.25 0.839595 0.6065
71 1 0.75 0.839595 0.6065
142 1 0 0.955025 0.615691
190 1 0.5 0.955025 0.615691
