ITEM: TIMESTEP
211
ITEM: NUMBER OF ATOMS
48
ITEM: BOX BOUNDS pp pp pp
0.0000000000000000e+00 2.9505999088000001e+00
0.0000000000000000e+00 1.0662213269878100e+01
0.0000000000000000e+00 4.3042699813799999e+01
ITEM: ATOMS id type xs ys zs
1 1 0 0.24279 0
7 1 0.5 0.137017 0.0483467
26 1 0 0.366753 0.057267
28 1 0.5 0.47365 0.00868461
2 1 8.17206e-17 0.637017 0.0483467
3 1 0.5 0.74279 0
25 1 0 0.97365 0.00868461
29 1 0.5 0.866753 0.057267
4 1 1 0.0185161 0.101579
5 1 1 0.402243 0.153177
30 1 1.05805e-16 0.133585 0.161624
33 1 0.5 0.250037 0.110129
8 1 0.5 0.518516 0.101579
9 1 0.5 0.902243 0.153177
27 1 1.07665e-16 0.750037 0.110129
34 1 0.5 0.633585 0.161624
10 1 2.22028e-17 0.169003 0.25791
13 1 0.5 0.285518 0.20596
37 1 0.5 0.0168956 0.213404
38 1 0.5 0.400396 0.265143
6 1 2.21384e-17 0.785518 0.20596
14 1 0.5 0.669003 0.25791
31 1 5.75118e-17 0.516896 0.213404
32 1 7.57478e-18 0.900396 0.265143
11 1 1 0.285776 0.316667
35 1 1.54604e-16 0.017169 0.323901
39 1 0.5 0.517169 0.323901
17 1 0.5 0.785776 0.316667
36 1 2.27648e-16 0.400654 0.375851
44 1 0.5 0.28393 0.428633
18 1 0.5 0.169277 0.368406
15 1 1 0.052588 0.420186
19 1 0.5 0.552588 0.420186
12 1 6.873e-17 0.669277 0.368406
40 1 1 0.78393 0.428633
43 1 0.5 0.900654 0.375851
16 1 0 0.436136 0.471681
22 1 0.5 0.31942 0.524543
41 1 9.31234e-17 0.167657 0.480232
47 1 0.5 0.0491566 0.533464
42 1 0 0.549157 0.533464
45 1 0.5 0.667657 0.480232
20 1 1 0.81942 0.524543
24 1 0.5 0.936136 0.471681
48 1 0.5 0.443383 0.58181
21 1 0 0.212523 0.573126
23 1 0.5 0.712523 0.573126
46 1 0 0.943383 0.58181
