ITEM: TIMESTEP
33
ITEM: NUMBER OF ATOMS
48
ITEM: BOX BOUNDS pp pp pp
0.0000000000000000e+00 2.9505999088000001e+00
0.0000000000000000e+00 1.0662213269878100e+01
0.0000000000000000e+00 4.3042699813799999e+01
ITEM: ATOMS id type xs ys zs
1 1 0 0.24279 0
7 1 0.5 0.137017 0.0487032
26 1 0 0.366753 0.0575848
28 1 0.5 0.47365 0.00868461
2 1 8.17206e-17 0.637017 0.0487032
3 1 0.5 0.74279 0
25 1 0 0.97365 0.00868461
29 1 0.5 0.866753 0.0575848
4 1 1 0.0185161 0.102333
5 1 1 0.402243 0.15428
30 1 1.05805e-16 0.133585 0.162795
33 1 0.5 0.250037 0.11082
8 1 0.5 0.518516 0.102333
9 1 0.5 0.902243 0.15428
27 1 1.07665e-16 0.750037 0.11082
34 1 0.5 0.633585 0.162795
10 1 2.22028e-17 0.169003 0.257974
13 1 0.5 0.285518 0.206994
37 1 0.5 0.0168956 0.21492
38 1 0.5 0.400396 0.267658
6 1 2.21384e-17 0.785518 0.206994
14 1 0.5 0.669003 0.257974
31 1 5.75118e-17 0.516896 0.21492
32 1 7.57478e-18 0.900396 0.267658
17 1 0.5 0.11911 0.314153
35 1 1.54604e-16 0.350502 0.323836
11 1 1 0.61911 0.314153
39 1 0.5 0.850502 0.323836
15 1 1 0.385921 0.419015
40 1 1 0.117263 0.42753
43 1 0.5 0.233988 0.374817
12 1 6.873e-17 0.00261027 0.36689
18 1 0.5 0.50261 0.36689
19 1 0.5 0.885921 0.419015
36 1 2.27648e-16 0.733988 0.374817
44 1 0.5 0.617263 0.42753
20 1 1 0.152753 0.524226
24 1 0.5 0.269469 0.470991
47 1 0.5 0.38249 0.533107
45 1 0.5 0.000990125 0.479478
41 1 9.31234e-17 0.50099 0.479478
16 1 0 0.769469 0.470991
22 1 0.5 0.652753 0.524226
42 1 0 0.88249 0.533107
46 1 0 0.276717 0.58181
23 1 0.5 0.0458567 0.573126
21 1 0 0.545857 0.573126
48 1 0.5 0.776717 0.58181
