LAMMPS (29 Sep 2021 - Update 3)
# variables
variable        lattConst equal 2.9505999088
variable        c_over_a  equal 1.5857113807361214
variable        _ydisp equal 1.0

variable        a11 equal ${lattConst}
variable        a11 equal 2.9505999088
variable        a22 equal sqrt(3+4*${c_over_a}^2)*${lattConst}
variable        a22 equal sqrt(3+4*1.58571138073612^2)*${lattConst}
variable        a22 equal sqrt(3+4*1.58571138073612^2)*2.9505999088
variable        a33 equal sqrt(3+${c_over_a}^2)*${lattConst}*3.614252724504768+3
variable        a33 equal sqrt(3+1.58571138073612^2)*${lattConst}*3.614252724504768+3
variable        a33 equal sqrt(3+1.58571138073612^2)*2.9505999088*3.614252724504768+3

variable        top equal 0.893019974
variable        upperBound equal 0.82305
variable        lowerBound equal 0.02333
variable        half equal 0.42
variable        vacHigh equal ${a33}*1.3
variable        vacHigh equal 28.0426998138*1.3


# ------------------- Simulation System -----------------------
units           metal
atom_style      atomic
boundary        p p p
neighbor        0.3 bin

# ------------------- Lattice Definition -----------------------
# always displace towards y direction
# will have 3 groups, upper, lower and boundary, boundary will be fixed to avoid the
# surface interaction
# don't change the following position. It contains 28 atoms with each layer 1 atom and 2 A vaccum layer.

print           "a1 ${a11} 0.0 0.0"
a1 2.9505999088 0.0 0.0
print           "a2 0 ${a22} 0.0"
a2 0 10.6622132698781 0.0
print           "a3 0.0 0.0 ${a33}"
a3 0.0 0.0 28.0426998138

lattice         custom 1.00                 a1 ${a11}   0.0     0.0                 a2 0.0      ${a22}  0.0                 a3 0.0      0.0     ${a33}                 basis 0.000000000  0.242789999  0.000000000 basis 0.000000000  0.627919972  0.079970002                 basis 0.500000000  0.742789984  0.000000000 basis 0.000000000  0.013050000  0.159940004                 basis 0.000000000  0.398169994  0.239920005 basis 0.000000000  0.783299983  0.319889992                 basis 0.500000000  0.127920002  0.079970002 basis 0.500000000  0.513050020  0.159940004                 basis 0.500000000  0.898169994  0.239920005 basis 0.000000000  0.168430001  0.399859995                 basis 0.000000000  0.553560019  0.479829997 basis 0.000000000  0.938679993  0.559800029                 basis 0.500000000  0.283300012  0.319889992 basis 0.500000000  0.668429971  0.399859995                 basis 0.000000000  0.323810011  0.639779985 basis 0.000000000  0.708940029  0.719749987                 basis 0.500000000  0.053560000  0.479829997 basis 0.500000000  0.438679993  0.559800029                 basis 0.500000000  0.823809981  0.639779985 basis 0.000000000  0.094059996  0.799719989                 basis 0.000000000  0.479189992  0.879689991 basis 0.500000000  0.594060004  0.799719989                 basis 0.500000000  0.979189992  0.879689991 basis 0.500000000  0.208939999  0.719749987                 basis 0.000000000  0.973649979  0.013330000 basis 0.000000000  0.358770013  0.093300000                 basis 0.000000000  0.743900001  0.173270002 basis 0.500000000  0.473650008  0.013330000                 basis 0.500000000  0.858770013  0.093300000 basis 0.000000000  0.129030004  0.253239989                 basis 0.000000000  0.514159977  0.333220005 basis 0.000000000  0.899280012  0.413190007                 basis 0.500000000  0.243900001  0.173270002 basis 0.500000000  0.629029989  0.253239989                 basis 0.000000000  0.284410000  0.493160009 basis 0.000000000  0.669539988  0.573130012                 basis 0.500000000  0.014160000  0.333220005 basis 0.500000000  0.399280012  0.413190007                 basis 0.500000000  0.784410000  0.493160009 basis 0.000000000  0.054660000  0.653100014                 basis 0.000000000  0.439790010  0.733080029 basis 0.000000000  0.824919999  0.813049972                 basis 0.500000000  0.169540003  0.573130012 basis 0.500000000  0.554660022  0.653100014                 basis 0.500000000  0.939790010  0.733080029 basis 0.000000000  0.210050002  0.893019974                 basis 0.500000000  0.324919999  0.813049972 basis 0.500000000  0.710049987  0.893019974
lattice         custom 1.00                 a1 2.9505999088   0.0     0.0                 a2 0.0      ${a22}  0.0                 a3 0.0      0.0     ${a33}                 basis 0.000000000  0.242789999  0.000000000 basis 0.000000000  0.627919972  0.079970002                 basis 0.500000000  0.742789984  0.000000000 basis 0.000000000  0.013050000  0.159940004                 basis 0.000000000  0.398169994  0.239920005 basis 0.000000000  0.783299983  0.319889992                 basis 0.500000000  0.127920002  0.079970002 basis 0.500000000  0.513050020  0.159940004                 basis 0.500000000  0.898169994  0.239920005 basis 0.000000000  0.168430001  0.399859995                 basis 0.000000000  0.553560019  0.479829997 basis 0.000000000  0.938679993  0.559800029                 basis 0.500000000  0.283300012  0.319889992 basis 0.500000000  0.668429971  0.399859995                 basis 0.000000000  0.323810011  0.639779985 basis 0.000000000  0.708940029  0.719749987                 basis 0.500000000  0.053560000  0.479829997 basis 0.500000000  0.438679993  0.559800029                 basis 0.500000000  0.823809981  0.639779985 basis 0.000000000  0.094059996  0.799719989                 basis 0.000000000  0.479189992  0.879689991 basis 0.500000000  0.594060004  0.799719989                 basis 0.500000000  0.979189992  0.879689991 basis 0.500000000  0.208939999  0.719749987                 basis 0.000000000  0.973649979  0.013330000 basis 0.000000000  0.358770013  0.093300000                 basis 0.000000000  0.743900001  0.173270002 basis 0.500000000  0.473650008  0.013330000                 basis 0.500000000  0.858770013  0.093300000 basis 0.000000000  0.129030004  0.253239989                 basis 0.000000000  0.514159977  0.333220005 basis 0.000000000  0.899280012  0.413190007                 basis 0.500000000  0.243900001  0.173270002 basis 0.500000000  0.629029989  0.253239989                 basis 0.000000000  0.284410000  0.493160009 basis 0.000000000  0.669539988  0.573130012                 basis 0.500000000  0.014160000  0.333220005 basis 0.500000000  0.399280012  0.413190007                 basis 0.500000000  0.784410000  0.493160009 basis 0.000000000  0.054660000  0.653100014                 basis 0.000000000  0.439790010  0.733080029 basis 0.000000000  0.824919999  0.813049972                 basis 0.500000000  0.169540003  0.573130012 basis 0.500000000  0.554660022  0.653100014                 basis 0.500000000  0.939790010  0.733080029 basis 0.000000000  0.210050002  0.893019974                 basis 0.500000000  0.324919999  0.813049972 basis 0.500000000  0.710049987  0.893019974
lattice         custom 1.00                 a1 2.9505999088   0.0     0.0                 a2 0.0      10.6622132698781  0.0                 a3 0.0      0.0     ${a33}                 basis 0.000000000  0.242789999  0.000000000 basis 0.000000000  0.627919972  0.079970002                 basis 0.500000000  0.742789984  0.000000000 basis 0.000000000  0.013050000  0.159940004                 basis 0.000000000  0.398169994  0.239920005 basis 0.000000000  0.783299983  0.319889992                 basis 0.500000000  0.127920002  0.079970002 basis 0.500000000  0.513050020  0.159940004                 basis 0.500000000  0.898169994  0.239920005 basis 0.000000000  0.168430001  0.399859995                 basis 0.000000000  0.553560019  0.479829997 basis 0.000000000  0.938679993  0.559800029                 basis 0.500000000  0.283300012  0.319889992 basis 0.500000000  0.668429971  0.399859995                 basis 0.000000000  0.323810011  0.639779985 basis 0.000000000  0.708940029  0.719749987                 basis 0.500000000  0.053560000  0.479829997 basis 0.500000000  0.438679993  0.559800029                 basis 0.500000000  0.823809981  0.639779985 basis 0.000000000  0.094059996  0.799719989                 basis 0.000000000  0.479189992  0.879689991 basis 0.500000000  0.594060004  0.799719989                 basis 0.500000000  0.979189992  0.879689991 basis 0.500000000  0.208939999  0.719749987                 basis 0.000000000  0.973649979  0.013330000 basis 0.000000000  0.358770013  0.093300000                 basis 0.000000000  0.743900001  0.173270002 basis 0.500000000  0.473650008  0.013330000                 basis 0.500000000  0.858770013  0.093300000 basis 0.000000000  0.129030004  0.253239989                 basis 0.000000000  0.514159977  0.333220005 basis 0.000000000  0.899280012  0.413190007                 basis 0.500000000  0.243900001  0.173270002 basis 0.500000000  0.629029989  0.253239989                 basis 0.000000000  0.284410000  0.493160009 basis 0.000000000  0.669539988  0.573130012                 basis 0.500000000  0.014160000  0.333220005 basis 0.500000000  0.399280012  0.413190007                 basis 0.500000000  0.784410000  0.493160009 basis 0.000000000  0.054660000  0.653100014                 basis 0.000000000  0.439790010  0.733080029 basis 0.000000000  0.824919999  0.813049972                 basis 0.500000000  0.169540003  0.573130012 basis 0.500000000  0.554660022  0.653100014                 basis 0.500000000  0.939790010  0.733080029 basis 0.000000000  0.210050002  0.893019974                 basis 0.500000000  0.324919999  0.813049972 basis 0.500000000  0.710049987  0.893019974
lattice         custom 1.00                 a1 2.9505999088   0.0     0.0                 a2 0.0      10.6622132698781  0.0                 a3 0.0      0.0     28.0426998138                 basis 0.000000000  0.242789999  0.000000000 basis 0.000000000  0.627919972  0.079970002                 basis 0.500000000  0.742789984  0.000000000 basis 0.000000000  0.013050000  0.159940004                 basis 0.000000000  0.398169994  0.239920005 basis 0.000000000  0.783299983  0.319889992                 basis 0.500000000  0.127920002  0.079970002 basis 0.500000000  0.513050020  0.159940004                 basis 0.500000000  0.898169994  0.239920005 basis 0.000000000  0.168430001  0.399859995                 basis 0.000000000  0.553560019  0.479829997 basis 0.000000000  0.938679993  0.559800029                 basis 0.500000000  0.283300012  0.319889992 basis 0.500000000  0.668429971  0.399859995                 basis 0.000000000  0.323810011  0.639779985 basis 0.000000000  0.708940029  0.719749987                 basis 0.500000000  0.053560000  0.479829997 basis 0.500000000  0.438679993  0.559800029                 basis 0.500000000  0.823809981  0.639779985 basis 0.000000000  0.094059996  0.799719989                 basis 0.000000000  0.479189992  0.879689991 basis 0.500000000  0.594060004  0.799719989                 basis 0.500000000  0.979189992  0.879689991 basis 0.500000000  0.208939999  0.719749987                 basis 0.000000000  0.973649979  0.013330000 basis 0.000000000  0.358770013  0.093300000                 basis 0.000000000  0.743900001  0.173270002 basis 0.500000000  0.473650008  0.013330000                 basis 0.500000000  0.858770013  0.093300000 basis 0.000000000  0.129030004  0.253239989                 basis 0.000000000  0.514159977  0.333220005 basis 0.000000000  0.899280012  0.413190007                 basis 0.500000000  0.243900001  0.173270002 basis 0.500000000  0.629029989  0.253239989                 basis 0.000000000  0.284410000  0.493160009 basis 0.000000000  0.669539988  0.573130012                 basis 0.500000000  0.014160000  0.333220005 basis 0.500000000  0.399280012  0.413190007                 basis 0.500000000  0.784410000  0.493160009 basis 0.000000000  0.054660000  0.653100014                 basis 0.000000000  0.439790010  0.733080029 basis 0.000000000  0.824919999  0.813049972                 basis 0.500000000  0.169540003  0.573130012 basis 0.500000000  0.554660022  0.653100014                 basis 0.500000000  0.939790010  0.733080029 basis 0.000000000  0.210050002  0.893019974                 basis 0.500000000  0.324919999  0.813049972 basis 0.500000000  0.710049987  0.893019974
Lattice spacing in x,y,z = 2.9505999 10.662213 28.042700

# lattice         hcp 1 orient y 0 2 -1 orient x 1 0 0 orient z 0 1 2


region          atoms block 0 1 0 1 0 1 units lattice # the region of atoms
create_box      5 atoms # 3 types of atoms
Created orthogonal box = (0.0000000 0.0000000 0.0000000) to (2.9505999 10.662213 28.042700)
  1 by 1 by 1 MPI processor grid
region          upper block INF INF INF INF ${half} ${top} units lattice
region          upper block INF INF INF INF 0.42 ${top} units lattice
region          upper block INF INF INF INF 0.42 0.893019974 units lattice
region          upperbound block INF INF INF INF ${upperBound} INF units lattice
region          upperbound block INF INF INF INF 0.82305 INF units lattice
region          lowerbound block INF INF INF INF INF ${lowerBound} units lattice
region          lowerbound block INF INF INF INF INF 0.02333 units lattice

create_atoms    1 region atoms
Created 48 atoms
  using lattice units in orthogonal box = (0.0000000 0.0000000 0.0000000) to (2.9505999 10.662213 28.042700)
  create_atoms CPU = 0.000 seconds

change_box      all z delta 0 15 units box # add vacuum layer 15 A
Changing box ...
  orthogonal box = (0.0000000 0.0000000 0.0000000) to (2.9505999 10.662213 43.042700)

group           atoms region atoms
48 atoms in group atoms
group           upper region upper
24 atoms in group upper
group           lower subtract atoms upper
24 atoms in group lower
group           mobile union upper lower
48 atoms in group mobile
group           upperbound region upperbound
4 atoms in group upperbound
group           lowerbound region lowerbound
4 atoms in group lowerbound
group           boundary union upperbound lowerbound
8 atoms in group boundary

set             group lower type 1
Setting atom values ...
  24 settings made for type
set             group upper type 1
Setting atom values ...
  24 settings made for type
set             group boundary type 1
Setting atom values ...
  8 settings made for type

# ------------------- Potential Setting -----------------------
# pair_style      eam/fs
# pair_coeff      * * Zr_3.eam.fs Zr Zr Zr

mass            1 47.87
mass            2 26.98
mass            3 95.94
mass            4 52.00
mass            5 55.85

pair_style      deepmd ../Ti5_big_i2.pb
Summary of lammps deepmd module ...
  >>> Info of deepmd-kit:
  installed to:       /root/deepmd-kit/c_build
  source:             v1.3.2-1132-g0a779ba
  source branch:       devel
  source commit:      0a779ba
  source commit at:   2022-09-06 19:30:35 +0800
  surpport model ver.:1.1 
  build float prec:   double
  build variant:      cuda
  build with tf inc:  /root/soft/tf/include;/root/soft/tf/include
  build with tf lib:  /root/soft/tf/lib/libtensorflow_cc.so;/root/soft/tf/lib/libtensorflow_framework.so
  set tf intra_op_parallelism_threads: 0
  set tf inter_op_parallelism_threads: 0
  >>> Info of lammps module:
  use deepmd-kit at:  /root/deepmd-kit/c_build
  source:             v1.3.2-1132-g0a779ba
  source branch:      devel
  source commit:      0a779ba
  source commit at:   2022-09-06 19:30:35 +0800
  build float prec:   double
  build with tf inc:  /root/soft/tf/include;/root/soft/tf/include
  build with tf lib:  /root/soft/tf/lib/libtensorflow_cc.so;/root/soft/tf/lib/libtensorflow_framework.so
pair_coeff      * *

# write_data      data.init
# jump            in.blank

# calculate the E0 of current relaxed perfect configuration
variable        A equal lx*ly*1E-20
variable        ev2mJ equal 1.60217657E-16

fix             1 boundary setforce 0. 0. 0.
min_style       cg
minimize        1E-10 1E-10 100000 100000

CITE-CITE-CITE-CITE-CITE-CITE-CITE-CITE-CITE-CITE-CITE-CITE-CITE

Your simulation uses code contributions which should be cited:

- USER-DEEPMD package:

@article{Wang_ComputPhysCommun_2018_v228_p178,
  author = {Wang, Han and Zhang, Linfeng and Han, Jiequn and E, Weinan},
  doi = {10.1016/j.cpc.2018.03.016},
  url = {https://doi.org/10.1016/j.cpc.2018.03.016},
  year = 2018,
  month = {jul},
  publisher = {Elsevier {BV}},
  volume = 228,
  journal = {Comput. Phys. Commun.},
  title = {{DeePMD-kit: A deep learning package for many-body potential energy representation and molecular dynamics}},
  pages = {178--184}
}

CITE-CITE-CITE-CITE-CITE-CITE-CITE-CITE-CITE-CITE-CITE-CITE-CITE

WARNING: Using 'neigh_modify every 1 delay 0 check yes' setting during minimization (../min.cpp:188)
Neighbor list info ...
  update every 1 steps, delay 0 steps, check yes
  max neighbors/atom: 2000, page size: 100000
  master list distance cutoff = 7.3
  ghost atom cutoff = 7.3
  binsize = 3.65, bins = 1 3 12
  1 neighbor lists, perpetual/occasional/extra = 1 0 0
  (1) pair deepmd, perpetual
      attributes: full, newton on
      pair build: full/bin/atomonly
      stencil: full/bin/3d
      bin: standard
Per MPI rank memory allocation (min/avg/max) = 4.220 | 4.220 | 4.220 Mbytes
Step Temp E_pair E_mol TotEng Press 
       0            0   -367.99635            0   -367.99635    -22468.04 
      15            0   -368.35496            0   -368.35496   -20927.243 
Loop time of 0.167599 on 1 procs for 15 steps with 48 atoms

111.5% CPU use with 1 MPI tasks x no OpenMP threads

Minimization stats:
  Stopping criterion = energy tolerance
  Energy initial, next-to-last, final = 
     -367.996353515031  -368.354957804944  -368.354957830054
  Force two-norm initial, final = 1.5548912 0.00030381780
  Force max component initial, final = 0.52961879 9.8555958e-05
  Final line search alpha, max atom move = 1.0000000 9.8555958e-05
  Iterations, force evaluations = 15 29

MPI task timing breakdown:
Section |  min time  |  avg time  |  max time  |%varavg| %total
---------------------------------------------------------------
Pair    | 0.16692    | 0.16692    | 0.16692    |   0.0 | 99.60
Neigh   | 0.00019932 | 0.00019932 | 0.00019932 |   0.0 |  0.12
Comm    | 0.00019217 | 0.00019217 | 0.00019217 |   0.0 |  0.11
Output  | 0          | 0          | 0          |   0.0 |  0.00
Modify  | 2.3127e-05 | 2.3127e-05 | 2.3127e-05 |   0.0 |  0.01
Other   |            | 0.0002639  |            |       |  0.16

Nlocal:        48.0000 ave          48 max          48 min
Histogram: 1 0 0 0 0 0 0 0 0 0
Nghost:        783.000 ave         783 max         783 min
Histogram: 1 0 0 0 0 0 0 0 0 0
Neighs:         0.00000 ave           0 max           0 min
Histogram: 1 0 0 0 0 0 0 0 0 0
FullNghs:      3952.00 ave        3952 max        3952 min
Histogram: 1 0 0 0 0 0 0 0 0 0

Total # of neighbors = 3952
Ave neighs/atom = 82.333333
Neighbor list builds = 1
Dangerous builds = 0
run             0
Per MPI rank memory allocation (min/avg/max) = 3.095 | 3.095 | 3.095 Mbytes
Step Temp E_pair E_mol TotEng Press 
      15            0   -368.35496            0   -368.35496   -20927.243 
Loop time of 2.14577e-06 on 1 procs for 0 steps with 48 atoms

139.8% CPU use with 1 MPI tasks x no OpenMP threads

MPI task timing breakdown:
Section |  min time  |  avg time  |  max time  |%varavg| %total
---------------------------------------------------------------
Pair    | 0          | 0          | 0          |   0.0 |  0.00
Neigh   | 0          | 0          | 0          |   0.0 |  0.00
Comm    | 0          | 0          | 0          |   0.0 |  0.00
Output  | 0          | 0          | 0          |   0.0 |  0.00
Modify  | 0          | 0          | 0          |   0.0 |  0.00
Other   |            | 2.146e-06  |            |       |100.00

Nlocal:        48.0000 ave          48 max          48 min
Histogram: 1 0 0 0 0 0 0 0 0 0
Nghost:        788.000 ave         788 max         788 min
Histogram: 1 0 0 0 0 0 0 0 0 0
Neighs:         0.00000 ave           0 max           0 min
Histogram: 1 0 0 0 0 0 0 0 0 0
FullNghs:      3968.00 ave        3968 max        3968 min
Histogram: 1 0 0 0 0 0 0 0 0 0

Total # of neighbors = 3968
Ave neighs/atom = 82.666667
Neighbor list builds = 0
Dangerous builds = 0
unfix           1
write_dump      all atom dump.0

variable        E0_ equal pe
variable        E0 equal ${E0_}
variable        E0 equal -368.354957830054
variable        SFE equal (pe-${E0})/$A*${ev2mJ}
variable        SFE equal (pe--368.354957830054)/$A*${ev2mJ}
variable        SFE equal (pe--368.354957830054)/3.14599255017085e-19*${ev2mJ}
variable        SFE equal (pe--368.354957830054)/3.14599255017085e-19*1.60217657e-16

print           "0,${SFE}" file gsfe
0,5.78979081514588e-11

# create a loop to calculate the following displacement
variable        steps equal 30
variable        ydisp equal ${_ydisp}/${steps}
variable        ydisp equal 1/${steps}
variable        ydisp equal 1/30

# start loop

variable        i loop ${steps}
variable        i loop 30
label           loop

variable        rdisp equal $i/${steps} # the relative displacement
variable        rdisp equal 1/${steps} 
variable        rdisp equal 1/30 

displace_atoms  upper move 0.0 ${ydisp} 0 units lattice
displace_atoms  upper move 0.0 0.0333333333333333 0 units lattice
Displacing atoms ...

fix             1 mobile setforce 0. 0. NULL # only allowed to relax in Z direction
fix             2 boundary setforce 0. 0. 0. # boundary is fixed to avoid the surface effect

min_style       cg
minimize        1E-10 1E-10 100000 100000
WARNING: Using 'neigh_modify every 1 delay 0 check yes' setting during minimization (../min.cpp:188)
Per MPI rank memory allocation (min/avg/max) = 4.220 | 4.220 | 4.220 Mbytes
Step Temp E_pair E_mol TotEng Press 
      15            0   -368.03621            0   -368.03621   -20711.914 
      23            0   -368.04714            0   -368.04714   -20721.183 
Loop time of 0.0908432 on 1 procs for 8 steps with 48 atoms

117.5% CPU use with 1 MPI tasks x no OpenMP threads

Minimization stats:
  Stopping criterion = energy tolerance
  Energy initial, next-to-last, final = 
     -368.036211666973  -368.047141187819  -368.047141193617
  Force two-norm initial, final = 0.31331477 9.8949271e-05
  Force max component initial, final = 0.14873472 3.2697256e-05
  Final line search alpha, max atom move = 1.0000000 3.2697256e-05
  Iterations, force evaluations = 8 16

MPI task timing breakdown:
Section |  min time  |  avg time  |  max time  |%varavg| %total
---------------------------------------------------------------
Pair    | 0.090581   | 0.090581   | 0.090581   |   0.0 | 99.71
Neigh   | 0          | 0          | 0          |   0.0 |  0.00
Comm    | 9.5844e-05 | 9.5844e-05 | 9.5844e-05 |   0.0 |  0.11
Output  | 0          | 0          | 0          |   0.0 |  0.00
Modify  | 1.7405e-05 | 1.7405e-05 | 1.7405e-05 |   0.0 |  0.02
Other   |            | 0.000149   |            |       |  0.16

Nlocal:        48.0000 ave          48 max          48 min
Histogram: 1 0 0 0 0 0 0 0 0 0
Nghost:        788.000 ave         788 max         788 min
Histogram: 1 0 0 0 0 0 0 0 0 0
Neighs:         0.00000 ave           0 max           0 min
Histogram: 1 0 0 0 0 0 0 0 0 0
FullNghs:      3948.00 ave        3948 max        3948 min
Histogram: 1 0 0 0 0 0 0 0 0 0

Total # of neighbors = 3948
Ave neighs/atom = 82.250000
Neighbor list builds = 0
Dangerous builds = 0

write_dump      all atom dump.${i}
write_dump      all atom dump.1

print           "${rdisp},${SFE}" append gsfe
0.0333333333333333,156.763436305386

unfix           1
unfix           2

next            i
jump            SELF loop

variable        rdisp equal $i/${steps} # the relative displacement
variable        rdisp equal 2/${steps} 
variable        rdisp equal 2/30 

displace_atoms  upper move 0.0 ${ydisp} 0 units lattice
displace_atoms  upper move 0.0 0.0333333333333333 0 units lattice
Displacing atoms ...

fix             1 mobile setforce 0. 0. NULL # only allowed to relax in Z direction
fix             2 boundary setforce 0. 0. 0. # boundary is fixed to avoid the surface effect

min_style       cg
minimize        1E-10 1E-10 100000 100000
WARNING: Using 'neigh_modify every 1 delay 0 check yes' setting during minimization (../min.cpp:188)
Per MPI rank memory allocation (min/avg/max) = 4.220 | 4.220 | 4.220 Mbytes
Step Temp E_pair E_mol TotEng Press 
      23            0   -367.45933            0   -367.45933   -19966.383 
      33            0   -367.54279            0   -367.54279   -19806.279 
Loop time of 0.110271 on 1 procs for 10 steps with 48 atoms

118.8% CPU use with 1 MPI tasks x no OpenMP threads

Minimization stats:
  Stopping criterion = energy tolerance
  Energy initial, next-to-last, final = 
     -367.459332692282  -367.542794977769   -367.54279498098
  Force two-norm initial, final = 0.98472592 5.1627394e-05
  Force max component initial, final = 0.38122892 1.7956896e-05
  Final line search alpha, max atom move = 1.0000000 1.7956896e-05
  Iterations, force evaluations = 10 20

MPI task timing breakdown:
Section |  min time  |  avg time  |  max time  |%varavg| %total
---------------------------------------------------------------
Pair    | 0.10997    | 0.10997    | 0.10997    |   0.0 | 99.73
Neigh   | 0          | 0          | 0          |   0.0 |  0.00
Comm    | 0.00011325 | 0.00011325 | 0.00011325 |   0.0 |  0.10
Output  | 0          | 0          | 0          |   0.0 |  0.00
Modify  | 2.0504e-05 | 2.0504e-05 | 2.0504e-05 |   0.0 |  0.02
Other   |            | 0.0001674  |            |       |  0.15

Nlocal:        48.0000 ave          48 max          48 min
Histogram: 1 0 0 0 0 0 0 0 0 0
Nghost:        788.000 ave         788 max         788 min
Histogram: 1 0 0 0 0 0 0 0 0 0
Neighs:         0.00000 ave           0 max           0 min
Histogram: 1 0 0 0 0 0 0 0 0 0
FullNghs:      3940.00 ave        3940 max        3940 min
Histogram: 1 0 0 0 0 0 0 0 0 0

Total # of neighbors = 3940
Ave neighs/atom = 82.083333
Neighbor list builds = 0
Dangerous builds = 0

write_dump      all atom dump.${i}
write_dump      all atom dump.2

print           "${rdisp},${SFE}" append gsfe
0.0666666666666667,413.614548368694

unfix           1
unfix           2

next            i
jump            SELF loop

variable        rdisp equal $i/${steps} # the relative displacement
variable        rdisp equal 3/${steps} 
variable        rdisp equal 3/30 

displace_atoms  upper move 0.0 ${ydisp} 0 units lattice
displace_atoms  upper move 0.0 0.0333333333333333 0 units lattice
Displacing atoms ...

fix             1 mobile setforce 0. 0. NULL # only allowed to relax in Z direction
fix             2 boundary setforce 0. 0. 0. # boundary is fixed to avoid the surface effect

min_style       cg
minimize        1E-10 1E-10 100000 100000
WARNING: Using 'neigh_modify every 1 delay 0 check yes' setting during minimization (../min.cpp:188)
Per MPI rank memory allocation (min/avg/max) = 4.220 | 4.220 | 4.220 Mbytes
Step Temp E_pair E_mol TotEng Press 
      33            0   -367.31344            0   -367.31344    -18791.59 
      41            0   -367.33889            0   -367.33889   -18482.266 
Loop time of 0.0875144 on 1 procs for 8 steps with 48 atoms

117.3% CPU use with 1 MPI tasks x no OpenMP threads

Minimization stats:
  Stopping criterion = energy tolerance
  Energy initial, next-to-last, final = 
     -367.313442112521  -367.338888170176  -367.338888200317
  Force two-norm initial, final = 0.42900927 0.00013673313
  Force max component initial, final = 0.13604348 3.6241516e-05
  Final line search alpha, max atom move = 1.0000000 3.6241516e-05
  Iterations, force evaluations = 8 16

MPI task timing breakdown:
Section |  min time  |  avg time  |  max time  |%varavg| %total
---------------------------------------------------------------
Pair    | 0.087266   | 0.087266   | 0.087266   |   0.0 | 99.72
Neigh   | 0          | 0          | 0          |   0.0 |  0.00
Comm    | 9.203e-05  | 9.203e-05  | 9.203e-05  |   0.0 |  0.11
Output  | 0          | 0          | 0          |   0.0 |  0.00
Modify  | 1.6689e-05 | 1.6689e-05 | 1.6689e-05 |   0.0 |  0.02
Other   |            | 0.0001395  |            |       |  0.16

Nlocal:        48.0000 ave          48 max          48 min
Histogram: 1 0 0 0 0 0 0 0 0 0
Nghost:        783.000 ave         783 max         783 min
Histogram: 1 0 0 0 0 0 0 0 0 0
Neighs:         0.00000 ave           0 max           0 min
Histogram: 1 0 0 0 0 0 0 0 0 0
FullNghs:      3908.00 ave        3908 max        3908 min
Histogram: 1 0 0 0 0 0 0 0 0 0

Total # of neighbors = 3908
Ave neighs/atom = 81.416667
Neighbor list builds = 0
Dangerous builds = 0

write_dump      all atom dump.${i}
write_dump      all atom dump.3

print           "${rdisp},${SFE}" append gsfe
0.1,517.459252777156

unfix           1
unfix           2

next            i
jump            SELF loop

variable        rdisp equal $i/${steps} # the relative displacement
variable        rdisp equal 4/${steps} 
variable        rdisp equal 4/30 

displace_atoms  upper move 0.0 ${ydisp} 0 units lattice
displace_atoms  upper move 0.0 0.0333333333333333 0 units lattice
Displacing atoms ...

fix             1 mobile setforce 0. 0. NULL # only allowed to relax in Z direction
fix             2 boundary setforce 0. 0. 0. # boundary is fixed to avoid the surface effect

min_style       cg
minimize        1E-10 1E-10 100000 100000
WARNING: Using 'neigh_modify every 1 delay 0 check yes' setting during minimization (../min.cpp:188)
Per MPI rank memory allocation (min/avg/max) = 4.220 | 4.220 | 4.220 Mbytes
Step Temp E_pair E_mol TotEng Press 
      41            0    -367.4092            0    -367.4092   -18023.192 
      49            0   -367.41603            0   -367.41603   -18039.459 
Loop time of 0.0875416 on 1 procs for 8 steps with 48 atoms

118.3% CPU use with 1 MPI tasks x no OpenMP threads

Minimization stats:
  Stopping criterion = energy tolerance
  Energy initial, next-to-last, final = 
     -367.409199854774   -367.41603426689  -367.416034273287
  Force two-norm initial, final = 0.22381555 2.6352740e-05
  Force max component initial, final = 0.076412283 8.7972651e-06
  Final line search alpha, max atom move = 1.0000000 8.7972651e-06
  Iterations, force evaluations = 8 16

MPI task timing breakdown:
Section |  min time  |  avg time  |  max time  |%varavg| %total
---------------------------------------------------------------
Pair    | 0.087272   | 0.087272   | 0.087272   |   0.0 | 99.69
Neigh   | 0          | 0          | 0          |   0.0 |  0.00
Comm    | 9.3937e-05 | 9.3937e-05 | 9.3937e-05 |   0.0 |  0.11
Output  | 0          | 0          | 0          |   0.0 |  0.00
Modify  | 1.6928e-05 | 1.6928e-05 | 1.6928e-05 |   0.0 |  0.02
Other   |            | 0.0001588  |            |       |  0.18

Nlocal:        48.0000 ave          48 max          48 min
Histogram: 1 0 0 0 0 0 0 0 0 0
Nghost:        788.000 ave         788 max         788 min
Histogram: 1 0 0 0 0 0 0 0 0 0
Neighs:         0.00000 ave           0 max           0 min
Histogram: 1 0 0 0 0 0 0 0 0 0
FullNghs:      3908.00 ave        3908 max        3908 min
Histogram: 1 0 0 0 0 0 0 0 0 0

Total # of neighbors = 3908
Ave neighs/atom = 81.416667
Neighbor list builds = 0
Dangerous builds = 0

write_dump      all atom dump.${i}
write_dump      all atom dump.4

print           "${rdisp},${SFE}" append gsfe
0.133333333333333,478.170656695212

unfix           1
unfix           2

next            i
jump            SELF loop

variable        rdisp equal $i/${steps} # the relative displacement
variable        rdisp equal 5/${steps} 
variable        rdisp equal 5/30 

displace_atoms  upper move 0.0 ${ydisp} 0 units lattice
displace_atoms  upper move 0.0 0.0333333333333333 0 units lattice
Displacing atoms ...

fix             1 mobile setforce 0. 0. NULL # only allowed to relax in Z direction
fix             2 boundary setforce 0. 0. 0. # boundary is fixed to avoid the surface effect

min_style       cg
minimize        1E-10 1E-10 100000 100000
WARNING: Using 'neigh_modify every 1 delay 0 check yes' setting during minimization (../min.cpp:188)
Per MPI rank memory allocation (min/avg/max) = 4.220 | 4.220 | 4.220 Mbytes
Step Temp E_pair E_mol TotEng Press 
      49            0   -367.58302            0   -367.58302   -18531.087 
      57            0   -367.61335            0   -367.61335   -18422.234 
Loop time of 0.0875425 on 1 procs for 8 steps with 48 atoms

116.1% CPU use with 1 MPI tasks x no OpenMP threads

Minimization stats:
  Stopping criterion = energy tolerance
  Energy initial, next-to-last, final = 
     -367.583016294454  -367.613346507532  -367.613346518733
  Force two-norm initial, final = 0.53154566 0.00019225602
  Force max component initial, final = 0.25283758 3.8044444e-05
  Final line search alpha, max atom move = 1.0000000 3.8044444e-05
  Iterations, force evaluations = 8 16

MPI task timing breakdown:
Section |  min time  |  avg time  |  max time  |%varavg| %total
---------------------------------------------------------------
Pair    | 0.087289   | 0.087289   | 0.087289   |   0.0 | 99.71
Neigh   | 0          | 0          | 0          |   0.0 |  0.00
Comm    | 9.3222e-05 | 9.3222e-05 | 9.3222e-05 |   0.0 |  0.11
Output  | 0          | 0          | 0          |   0.0 |  0.00
Modify  | 1.502e-05  | 1.502e-05  | 1.502e-05  |   0.0 |  0.02
Other   |            | 0.0001454  |            |       |  0.17

Nlocal:        48.0000 ave          48 max          48 min
Histogram: 1 0 0 0 0 0 0 0 0 0
Nghost:        788.000 ave         788 max         788 min
Histogram: 1 0 0 0 0 0 0 0 0 0
Neighs:         0.00000 ave           0 max           0 min
Histogram: 1 0 0 0 0 0 0 0 0 0
FullNghs:      3908.00 ave        3908 max        3908 min
Histogram: 1 0 0 0 0 0 0 0 0 0

Total # of neighbors = 3908
Ave neighs/atom = 81.416667
Neighbor list builds = 0
Dangerous builds = 0

write_dump      all atom dump.${i}
write_dump      all atom dump.5

print           "${rdisp},${SFE}" append gsfe
0.166666666666667,377.684386754541

unfix           1
unfix           2

next            i
jump            SELF loop

variable        rdisp equal $i/${steps} # the relative displacement
variable        rdisp equal 6/${steps} 
variable        rdisp equal 6/30 

displace_atoms  upper move 0.0 ${ydisp} 0 units lattice
displace_atoms  upper move 0.0 0.0333333333333333 0 units lattice
Displacing atoms ...

fix             1 mobile setforce 0. 0. NULL # only allowed to relax in Z direction
fix             2 boundary setforce 0. 0. 0. # boundary is fixed to avoid the surface effect

min_style       cg
minimize        1E-10 1E-10 100000 100000
WARNING: Using 'neigh_modify every 1 delay 0 check yes' setting during minimization (../min.cpp:188)
Per MPI rank memory allocation (min/avg/max) = 4.220 | 4.220 | 4.220 Mbytes
Step Temp E_pair E_mol TotEng Press 
      57            0    -367.7162            0    -367.7162   -18739.985 
      66            0   -367.77525            0   -367.77525   -19159.509 
Loop time of 0.0975726 on 1 procs for 9 steps with 48 atoms

115.9% CPU use with 1 MPI tasks x no OpenMP threads

Minimization stats:
  Stopping criterion = energy tolerance
  Energy initial, next-to-last, final = 
     -367.716200020502  -367.775251122021  -367.775251129707
  Force two-norm initial, final = 0.67190178 9.5396684e-05
  Force max component initial, final = 0.26117810 2.1979786e-05
  Final line search alpha, max atom move = 1.0000000 2.1979786e-05
  Iterations, force evaluations = 9 18

MPI task timing breakdown:
Section |  min time  |  avg time  |  max time  |%varavg| %total
---------------------------------------------------------------
Pair    | 0.097078   | 0.097078   | 0.097078   |   0.0 | 99.49
Neigh   | 0.0001986  | 0.0001986  | 0.0001986  |   0.0 |  0.20
Comm    | 0.00010943 | 0.00010943 | 0.00010943 |   0.0 |  0.11
Output  | 0          | 0          | 0          |   0.0 |  0.00
Modify  | 1.7881e-05 | 1.7881e-05 | 1.7881e-05 |   0.0 |  0.02
Other   |            | 0.0001683  |            |       |  0.17

Nlocal:        48.0000 ave          48 max          48 min
Histogram: 1 0 0 0 0 0 0 0 0 0
Nghost:        788.000 ave         788 max         788 min
Histogram: 1 0 0 0 0 0 0 0 0 0
Neighs:         0.00000 ave           0 max           0 min
Histogram: 1 0 0 0 0 0 0 0 0 0
FullNghs:      3916.00 ave        3916 max        3916 min
Histogram: 1 0 0 0 0 0 0 0 0 0

Total # of neighbors = 3916
Ave neighs/atom = 81.583333
Neighbor list builds = 1
Dangerous builds = 0

write_dump      all atom dump.${i}
write_dump      all atom dump.6

print           "${rdisp},${SFE}" append gsfe
0.2,295.230353523071

unfix           1
unfix           2

next            i
jump            SELF loop

variable        rdisp equal $i/${steps} # the relative displacement
variable        rdisp equal 7/${steps} 
variable        rdisp equal 7/30 

displace_atoms  upper move 0.0 ${ydisp} 0 units lattice
displace_atoms  upper move 0.0 0.0333333333333333 0 units lattice
Displacing atoms ...

fix             1 mobile setforce 0. 0. NULL # only allowed to relax in Z direction
fix             2 boundary setforce 0. 0. 0. # boundary is fixed to avoid the surface effect

min_style       cg
minimize        1E-10 1E-10 100000 100000
WARNING: Using 'neigh_modify every 1 delay 0 check yes' setting during minimization (../min.cpp:188)
Per MPI rank memory allocation (min/avg/max) = 4.220 | 4.220 | 4.220 Mbytes
Step Temp E_pair E_mol TotEng Press 
      66            0   -367.77707            0   -367.77707   -19998.524 
      76            0   -367.85694            0   -367.85694   -20657.138 
Loop time of 0.108231 on 1 procs for 10 steps with 48 atoms

109.0% CPU use with 1 MPI tasks x no OpenMP threads

Minimization stats:
  Stopping criterion = energy tolerance
  Energy initial, next-to-last, final = 
     -367.777071000959  -367.856936445016  -367.856936451293
  Force two-norm initial, final = 0.67491106 0.00011582162
  Force max component initial, final = 0.26179269 3.1837330e-05
  Final line search alpha, max atom move = 1.0000000 3.1837330e-05
  Iterations, force evaluations = 10 20

MPI task timing breakdown:
Section |  min time  |  avg time  |  max time  |%varavg| %total
---------------------------------------------------------------
Pair    | 0.10771    | 0.10771    | 0.10771    |   0.0 | 99.52
Neigh   | 0.00019479 | 0.00019479 | 0.00019479 |   0.0 |  0.18
Comm    | 0.00012207 | 0.00012207 | 0.00012207 |   0.0 |  0.11
Output  | 0          | 0          | 0          |   0.0 |  0.00
Modify  | 2.4796e-05 | 2.4796e-05 | 2.4796e-05 |   0.0 |  0.02
Other   |            | 0.0001755  |            |       |  0.16

Nlocal:        48.0000 ave          48 max          48 min
Histogram: 1 0 0 0 0 0 0 0 0 0
Nghost:        788.000 ave         788 max         788 min
Histogram: 1 0 0 0 0 0 0 0 0 0
Neighs:         0.00000 ave           0 max           0 min
Histogram: 1 0 0 0 0 0 0 0 0 0
FullNghs:      3944.00 ave        3944 max        3944 min
Histogram: 1 0 0 0 0 0 0 0 0 0

Total # of neighbors = 3944
Ave neighs/atom = 82.166667
Neighbor list builds = 1
Dangerous builds = 0

write_dump      all atom dump.${i}
write_dump      all atom dump.7

print           "${rdisp},${SFE}" append gsfe
0.233333333333333,253.630029850861

unfix           1
unfix           2

next            i
jump            SELF loop

variable        rdisp equal $i/${steps} # the relative displacement
variable        rdisp equal 8/${steps} 
variable        rdisp equal 8/30 

displace_atoms  upper move 0.0 ${ydisp} 0 units lattice
displace_atoms  upper move 0.0 0.0333333333333333 0 units lattice
Displacing atoms ...

fix             1 mobile setforce 0. 0. NULL # only allowed to relax in Z direction
fix             2 boundary setforce 0. 0. 0. # boundary is fixed to avoid the surface effect

min_style       cg
minimize        1E-10 1E-10 100000 100000
WARNING: Using 'neigh_modify every 1 delay 0 check yes' setting during minimization (../min.cpp:188)
Per MPI rank memory allocation (min/avg/max) = 4.220 | 4.220 | 4.220 Mbytes
Step Temp E_pair E_mol TotEng Press 
      76            0   -367.55517            0   -367.55517   -20721.772 
      85            0   -367.56569            0   -367.56569   -20581.098 
Loop time of 0.0973198 on 1 procs for 9 steps with 48 atoms

109.8% CPU use with 1 MPI tasks x no OpenMP threads

Minimization stats:
  Stopping criterion = energy tolerance
  Energy initial, next-to-last, final = 
     -367.555174534455  -367.565694320693  -367.565694333955
  Force two-norm initial, final = 0.44821511 0.00021938077
  Force max component initial, final = 0.19627591 5.4668075e-05
  Final line search alpha, max atom move = 1.0000000 5.4668075e-05
  Iterations, force evaluations = 9 18

MPI task timing breakdown:
Section |  min time  |  avg time  |  max time  |%varavg| %total
---------------------------------------------------------------
Pair    | 0.097018   | 0.097018   | 0.097018   |   0.0 | 99.69
Neigh   | 0          | 0          | 0          |   0.0 |  0.00
Comm    | 0.00010991 | 0.00010991 | 0.00010991 |   0.0 |  0.11
Output  | 0          | 0          | 0          |   0.0 |  0.00
Modify  | 1.7405e-05 | 1.7405e-05 | 1.7405e-05 |   0.0 |  0.02
Other   |            | 0.0001743  |            |       |  0.18

Nlocal:        48.0000 ave          48 max          48 min
Histogram: 1 0 0 0 0 0 0 0 0 0
Nghost:        788.000 ave         788 max         788 min
Histogram: 1 0 0 0 0 0 0 0 0 0
Neighs:         0.00000 ave           0 max           0 min
Histogram: 1 0 0 0 0 0 0 0 0 0
FullNghs:      3908.00 ave        3908 max        3908 min
Histogram: 1 0 0 0 0 0 0 0 0 0

Total # of neighbors = 3908
Ave neighs/atom = 81.416667
Neighbor list builds = 0
Dangerous builds = 0

write_dump      all atom dump.${i}
write_dump      all atom dump.8

print           "${rdisp},${SFE}" append gsfe
0.266666666666667,401.952471546119

unfix           1
unfix           2

next            i
jump            SELF loop

variable        rdisp equal $i/${steps} # the relative displacement
variable        rdisp equal 9/${steps} 
variable        rdisp equal 9/30 

displace_atoms  upper move 0.0 ${ydisp} 0 units lattice
displace_atoms  upper move 0.0 0.0333333333333333 0 units lattice
Displacing atoms ...

fix             1 mobile setforce 0. 0. NULL # only allowed to relax in Z direction
fix             2 boundary setforce 0. 0. 0. # boundary is fixed to avoid the surface effect

min_style       cg
minimize        1E-10 1E-10 100000 100000
WARNING: Using 'neigh_modify every 1 delay 0 check yes' setting during minimization (../min.cpp:188)
Per MPI rank memory allocation (min/avg/max) = 4.220 | 4.220 | 4.220 Mbytes
Step Temp E_pair E_mol TotEng Press 
      85            0   -366.96202            0   -366.96202   -19694.523 
      95            0   -367.05354            0   -367.05354   -18702.363 
Loop time of 0.107307 on 1 procs for 10 steps with 48 atoms

111.3% CPU use with 1 MPI tasks x no OpenMP threads

Minimization stats:
  Stopping criterion = energy tolerance
  Energy initial, next-to-last, final = 
     -366.962017638301  -367.053541596418  -367.053541611418
  Force two-norm initial, final = 1.0989664 0.00016250903
  Force max component initial, final = 0.49862101 6.6409311e-05
  Final line search alpha, max atom move = 1.0000000 6.6409311e-05
  Iterations, force evaluations = 10 20

MPI task timing breakdown:
Section |  min time  |  avg time  |  max time  |%varavg| %total
---------------------------------------------------------------
Pair    | 0.107      | 0.107      | 0.107      |   0.0 | 99.71
Neigh   | 0          | 0          | 0          |   0.0 |  0.00
Comm    | 0.00010967 | 0.00010967 | 0.00010967 |   0.0 |  0.10
Output  | 0          | 0          | 0          |   0.0 |  0.00
Modify  | 1.955e-05  | 1.955e-05  | 1.955e-05  |   0.0 |  0.02
Other   |            | 0.0001781  |            |       |  0.17

Nlocal:        48.0000 ave          48 max          48 min
Histogram: 1 0 0 0 0 0 0 0 0 0
Nghost:        788.000 ave         788 max         788 min
Histogram: 1 0 0 0 0 0 0 0 0 0
Neighs:         0.00000 ave           0 max           0 min
Histogram: 1 0 0 0 0 0 0 0 0 0
FullNghs:      3936.00 ave        3936 max        3936 min
Histogram: 1 0 0 0 0 0 0 0 0 0

Total # of neighbors = 3936
Ave neighs/atom = 82.000000
Neighbor list builds = 0
Dangerous builds = 0

write_dump      all atom dump.${i}
write_dump      all atom dump.9

print           "${rdisp},${SFE}" append gsfe
0.3,662.779246951436

unfix           1
unfix           2

next            i
jump            SELF loop

variable        rdisp equal $i/${steps} # the relative displacement
variable        rdisp equal 10/${steps} 
variable        rdisp equal 10/30 

displace_atoms  upper move 0.0 ${ydisp} 0 units lattice
displace_atoms  upper move 0.0 0.0333333333333333 0 units lattice
Displacing atoms ...

fix             1 mobile setforce 0. 0. NULL # only allowed to relax in Z direction
fix             2 boundary setforce 0. 0. 0. # boundary is fixed to avoid the surface effect

min_style       cg
minimize        1E-10 1E-10 100000 100000
WARNING: Using 'neigh_modify every 1 delay 0 check yes' setting during minimization (../min.cpp:188)
Per MPI rank memory allocation (min/avg/max) = 4.220 | 4.220 | 4.220 Mbytes
Step Temp E_pair E_mol TotEng Press 
      95            0    -366.5945            0    -366.5945   -18293.723 
     106            0   -366.62565            0   -366.62565   -17611.346 
Loop time of 0.117637 on 1 procs for 11 steps with 48 atoms

118.6% CPU use with 1 MPI tasks x no OpenMP threads

Minimization stats:
  Stopping criterion = energy tolerance
  Energy initial, next-to-last, final = 
     -366.594498356632  -366.625653444542  -366.625653479677
  Force two-norm initial, final = 0.66045977 0.00024252957
  Force max component initial, final = 0.29946582 8.0593565e-05
  Final line search alpha, max atom move = 1.0000000 8.0593565e-05
  Iterations, force evaluations = 11 22

MPI task timing breakdown:
Section |  min time  |  avg time  |  max time  |%varavg| %total
---------------------------------------------------------------
Pair    | 0.1173     | 0.1173     | 0.1173     |   0.0 | 99.71
Neigh   | 0          | 0          | 0          |   0.0 |  0.00
Comm    | 0.00012493 | 0.00012493 | 0.00012493 |   0.0 |  0.11
Output  | 0          | 0          | 0          |   0.0 |  0.00
Modify  | 2.1219e-05 | 2.1219e-05 | 2.1219e-05 |   0.0 |  0.02
Other   |            | 0.0001915  |            |       |  0.16

Nlocal:        48.0000 ave          48 max          48 min
Histogram: 1 0 0 0 0 0 0 0 0 0
Nghost:        788.000 ave         788 max         788 min
Histogram: 1 0 0 0 0 0 0 0 0 0
Neighs:         0.00000 ave           0 max           0 min
Histogram: 1 0 0 0 0 0 0 0 0 0
FullNghs:      3920.00 ave        3920 max        3920 min
Histogram: 1 0 0 0 0 0 0 0 0 0

Total # of neighbors = 3920
Ave neighs/atom = 81.666667
Neighbor list builds = 0
Dangerous builds = 0

write_dump      all atom dump.${i}
write_dump      all atom dump.10

print           "${rdisp},${SFE}" append gsfe
0.333333333333333,880.692140362242

unfix           1
unfix           2

next            i
jump            SELF loop

variable        rdisp equal $i/${steps} # the relative displacement
variable        rdisp equal 11/${steps} 
variable        rdisp equal 11/30 

displace_atoms  upper move 0.0 ${ydisp} 0 units lattice
displace_atoms  upper move 0.0 0.0333333333333333 0 units lattice
Displacing atoms ...

fix             1 mobile setforce 0. 0. NULL # only allowed to relax in Z direction
fix             2 boundary setforce 0. 0. 0. # boundary is fixed to avoid the surface effect

min_style       cg
minimize        1E-10 1E-10 100000 100000
WARNING: Using 'neigh_modify every 1 delay 0 check yes' setting during minimization (../min.cpp:188)
Per MPI rank memory allocation (min/avg/max) = 4.220 | 4.220 | 4.220 Mbytes
Step Temp E_pair E_mol TotEng Press 
     106            0   -366.34429            0   -366.34429   -17648.785 
     115            0   -366.35046            0   -366.35046   -17460.104 
Loop time of 0.0976298 on 1 procs for 9 steps with 48 atoms

118.6% CPU use with 1 MPI tasks x no OpenMP threads

Minimization stats:
  Stopping criterion = energy tolerance
  Energy initial, next-to-last, final = 
     -366.344290899545  -366.350462813151  -366.350462835184
  Force two-norm initial, final = 0.24687100 0.00015493727
  Force max component initial, final = 0.11151962 4.3468231e-05
  Final line search alpha, max atom move = 1.0000000 4.3468231e-05
  Iterations, force evaluations = 9 18

MPI task timing breakdown:
Section |  min time  |  avg time  |  max time  |%varavg| %total
---------------------------------------------------------------
Pair    | 0.097342   | 0.097342   | 0.097342   |   0.0 | 99.71
Neigh   | 0          | 0          | 0          |   0.0 |  0.00
Comm    | 0.00010252 | 0.00010252 | 0.00010252 |   0.0 |  0.11
Output  | 0          | 0          | 0          |   0.0 |  0.00
Modify  | 1.7405e-05 | 1.7405e-05 | 1.7405e-05 |   0.0 |  0.02
Other   |            | 0.0001678  |            |       |  0.17

Nlocal:        48.0000 ave          48 max          48 min
Histogram: 1 0 0 0 0 0 0 0 0 0
Nghost:        787.000 ave         787 max         787 min
Histogram: 1 0 0 0 0 0 0 0 0 0
Neighs:         0.00000 ave           0 max           0 min
Histogram: 1 0 0 0 0 0 0 0 0 0
FullNghs:      3912.00 ave        3912 max        3912 min
Histogram: 1 0 0 0 0 0 0 0 0 0

Total # of neighbors = 3912
Ave neighs/atom = 81.500000
Neighbor list builds = 0
Dangerous builds = 0

write_dump      all atom dump.${i}
write_dump      all atom dump.11

print           "${rdisp},${SFE}" append gsfe
0.366666666666667,1020.83996203004

unfix           1
unfix           2

next            i
jump            SELF loop

variable        rdisp equal $i/${steps} # the relative displacement
variable        rdisp equal 12/${steps} 
variable        rdisp equal 12/30 

displace_atoms  upper move 0.0 ${ydisp} 0 units lattice
displace_atoms  upper move 0.0 0.0333333333333333 0 units lattice
Displacing atoms ...

fix             1 mobile setforce 0. 0. NULL # only allowed to relax in Z direction
fix             2 boundary setforce 0. 0. 0. # boundary is fixed to avoid the surface effect

min_style       cg
minimize        1E-10 1E-10 100000 100000
WARNING: Using 'neigh_modify every 1 delay 0 check yes' setting during minimization (../min.cpp:188)
Per MPI rank memory allocation (min/avg/max) = 4.220 | 4.220 | 4.220 Mbytes
Step Temp E_pair E_mol TotEng Press 
     115            0   -366.29699            0   -366.29699   -16984.815 
     123            0   -366.31003            0   -366.31003   -17339.894 
Loop time of 0.0874975 on 1 procs for 8 steps with 48 atoms

116.3% CPU use with 1 MPI tasks x no OpenMP threads

Minimization stats:
  Stopping criterion = energy tolerance
  Energy initial, next-to-last, final = 
     -366.296989085228  -366.310027069047  -366.310027071981
  Force two-norm initial, final = 0.47485767 6.2328768e-05
  Force max component initial, final = 0.21555900 2.1602059e-05
  Final line search alpha, max atom move = 1.0000000 2.1602059e-05
  Iterations, force evaluations = 8 16

MPI task timing breakdown:
Section |  min time  |  avg time  |  max time  |%varavg| %total
---------------------------------------------------------------
Pair    | 0.087249   | 0.087249   | 0.087249   |   0.0 | 99.72
Neigh   | 0          | 0          | 0          |   0.0 |  0.00
Comm    | 8.8453e-05 | 8.8453e-05 | 8.8453e-05 |   0.0 |  0.10
Output  | 0          | 0          | 0          |   0.0 |  0.00
Modify  | 1.6212e-05 | 1.6212e-05 | 1.6212e-05 |   0.0 |  0.02
Other   |            | 0.0001435  |            |       |  0.16

Nlocal:        48.0000 ave          48 max          48 min
Histogram: 1 0 0 0 0 0 0 0 0 0
Nghost:        793.000 ave         793 max         793 min
Histogram: 1 0 0 0 0 0 0 0 0 0
Neighs:         0.00000 ave           0 max           0 min
Histogram: 1 0 0 0 0 0 0 0 0 0
FullNghs:      3912.00 ave        3912 max        3912 min
Histogram: 1 0 0 0 0 0 0 0 0 0

Total # of neighbors = 3912
Ave neighs/atom = 81.500000
Neighbor list builds = 0
Dangerous builds = 0

write_dump      all atom dump.${i}
write_dump      all atom dump.12

print           "${rdisp},${SFE}" append gsfe
0.4,1041.43290093886

unfix           1
unfix           2

next            i
jump            SELF loop

variable        rdisp equal $i/${steps} # the relative displacement
variable        rdisp equal 13/${steps} 
variable        rdisp equal 13/30 

displace_atoms  upper move 0.0 ${ydisp} 0 units lattice
displace_atoms  upper move 0.0 0.0333333333333333 0 units lattice
Displacing atoms ...

fix             1 mobile setforce 0. 0. NULL # only allowed to relax in Z direction
fix             2 boundary setforce 0. 0. 0. # boundary is fixed to avoid the surface effect

min_style       cg
minimize        1E-10 1E-10 100000 100000
WARNING: Using 'neigh_modify every 1 delay 0 check yes' setting during minimization (../min.cpp:188)
Per MPI rank memory allocation (min/avg/max) = 4.220 | 4.220 | 4.220 Mbytes
Step Temp E_pair E_mol TotEng Press 
     123            0   -366.51008            0   -366.51008   -17288.363 
     133            0   -366.52988            0   -366.52988   -18017.924 
Loop time of 0.108046 on 1 procs for 10 steps with 48 atoms

113.3% CPU use with 1 MPI tasks x no OpenMP threads

Minimization stats:
  Stopping criterion = energy tolerance
  Energy initial, next-to-last, final = 
     -366.510081657759  -366.529883662514   -366.52988368039
  Force two-norm initial, final = 0.51077205 0.00012583480
  Force max component initial, final = 0.24706915 4.0120776e-05
  Final line search alpha, max atom move = 1.0000000 4.0120776e-05
  Iterations, force evaluations = 10 20

MPI task timing breakdown:
Section |  min time  |  avg time  |  max time  |%varavg| %total
---------------------------------------------------------------
Pair    | 0.10771    | 0.10771    | 0.10771    |   0.0 | 99.69
Neigh   | 0          | 0          | 0          |   0.0 |  0.00
Comm    | 0.00011563 | 0.00011563 | 0.00011563 |   0.0 |  0.11
Output  | 0          | 0          | 0          |   0.0 |  0.00
Modify  | 2.1935e-05 | 2.1935e-05 | 2.1935e-05 |   0.0 |  0.02
Other   |            | 0.0001953  |            |       |  0.18

Nlocal:        48.0000 ave          48 max          48 min
Histogram: 1 0 0 0 0 0 0 0 0 0
Nghost:        787.000 ave         787 max         787 min
Histogram: 1 0 0 0 0 0 0 0 0 0
Neighs:         0.00000 ave           0 max           0 min
Histogram: 1 0 0 0 0 0 0 0 0 0
FullNghs:      3920.00 ave        3920 max        3920 min
Histogram: 1 0 0 0 0 0 0 0 0 0

Total # of neighbors = 3920
Ave neighs/atom = 81.666667
Neighbor list builds = 0
Dangerous builds = 0

write_dump      all atom dump.${i}
write_dump      all atom dump.13

print           "${rdisp},${SFE}" append gsfe
0.433333333333333,929.465341850697

unfix           1
unfix           2

next            i
jump            SELF loop

variable        rdisp equal $i/${steps} # the relative displacement
variable        rdisp equal 14/${steps} 
variable        rdisp equal 14/30 

displace_atoms  upper move 0.0 ${ydisp} 0 units lattice
displace_atoms  upper move 0.0 0.0333333333333333 0 units lattice
Displacing atoms ...

fix             1 mobile setforce 0. 0. NULL # only allowed to relax in Z direction
fix             2 boundary setforce 0. 0. 0. # boundary is fixed to avoid the surface effect

min_style       cg
minimize        1E-10 1E-10 100000 100000
WARNING: Using 'neigh_modify every 1 delay 0 check yes' setting during minimization (../min.cpp:188)
Per MPI rank memory allocation (min/avg/max) = 4.220 | 4.220 | 4.220 Mbytes
Step Temp E_pair E_mol TotEng Press 
     133            0   -366.81302            0   -366.81302   -17989.316 
     140            0    -366.8203            0    -366.8203   -18124.065 
Loop time of 0.0773487 on 1 procs for 7 steps with 48 atoms

116.5% CPU use with 1 MPI tasks x no OpenMP threads

Minimization stats:
  Stopping criterion = energy tolerance
  Energy initial, next-to-last, final = 
     -366.813024851485  -366.820302596415  -366.820302604238
  Force two-norm initial, final = 0.29342998 8.6628337e-05
  Force max component initial, final = 0.11126282 2.1579982e-05
  Final line search alpha, max atom move = 1.0000000 2.1579982e-05
  Iterations, force evaluations = 7 14

MPI task timing breakdown:
Section |  min time  |  avg time  |  max time  |%varavg| %total
---------------------------------------------------------------
Pair    | 0.077088   | 0.077088   | 0.077088   |   0.0 | 99.66
Neigh   | 0          | 0          | 0          |   0.0 |  0.00
Comm    | 8.9884e-05 | 8.9884e-05 | 8.9884e-05 |   0.0 |  0.12
Output  | 0          | 0          | 0          |   0.0 |  0.00
Modify  | 1.5259e-05 | 1.5259e-05 | 1.5259e-05 |   0.0 |  0.02
Other   |            | 0.0001559  |            |       |  0.20

Nlocal:        48.0000 ave          48 max          48 min
Histogram: 1 0 0 0 0 0 0 0 0 0
Nghost:        787.000 ave         787 max         787 min
Histogram: 1 0 0 0 0 0 0 0 0 0
Neighs:         0.00000 ave           0 max           0 min
Histogram: 1 0 0 0 0 0 0 0 0 0
FullNghs:      3928.00 ave        3928 max        3928 min
Histogram: 1 0 0 0 0 0 0 0 0 0

Total # of neighbors = 3928
Ave neighs/atom = 81.833333
Neighbor list builds = 0
Dangerous builds = 0

write_dump      all atom dump.${i}
write_dump      all atom dump.14

print           "${rdisp},${SFE}" append gsfe
0.466666666666667,781.562132337965

unfix           1
unfix           2

next            i
jump            SELF loop

variable        rdisp equal $i/${steps} # the relative displacement
variable        rdisp equal 15/${steps} 
variable        rdisp equal 15/30 

displace_atoms  upper move 0.0 ${ydisp} 0 units lattice
displace_atoms  upper move 0.0 0.0333333333333333 0 units lattice
Displacing atoms ...

fix             1 mobile setforce 0. 0. NULL # only allowed to relax in Z direction
fix             2 boundary setforce 0. 0. 0. # boundary is fixed to avoid the surface effect

min_style       cg
minimize        1E-10 1E-10 100000 100000
WARNING: Using 'neigh_modify every 1 delay 0 check yes' setting during minimization (../min.cpp:188)
Per MPI rank memory allocation (min/avg/max) = 4.220 | 4.220 | 4.220 Mbytes
Step Temp E_pair E_mol TotEng Press 
     140            0   -366.82995            0   -366.82995   -17625.322 
     150            0   -366.85442            0   -366.85442   -16658.382 
Loop time of 0.107971 on 1 procs for 10 steps with 48 atoms

118.2% CPU use with 1 MPI tasks x no OpenMP threads

Minimization stats:
  Stopping criterion = energy tolerance
  Energy initial, next-to-last, final = 
     -366.829946348731  -366.854422147145  -366.854422156726
  Force two-norm initial, final = 0.34193648 0.00012781837
  Force max component initial, final = 0.13610700 3.9638407e-05
  Final line search alpha, max atom move = 1.0000000 3.9638407e-05
  Iterations, force evaluations = 10 20

MPI task timing breakdown:
Section |  min time  |  avg time  |  max time  |%varavg| %total
---------------------------------------------------------------
Pair    | 0.10763    | 0.10763    | 0.10763    |   0.0 | 99.69
Neigh   | 0          | 0          | 0          |   0.0 |  0.00
Comm    | 0.00013256 | 0.00013256 | 0.00013256 |   0.0 |  0.12
Output  | 0          | 0          | 0          |   0.0 |  0.00
Modify  | 2.1219e-05 | 2.1219e-05 | 2.1219e-05 |   0.0 |  0.02
Other   |            | 0.0001829  |            |       |  0.17

Nlocal:        48.0000 ave          48 max          48 min
Histogram: 1 0 0 0 0 0 0 0 0 0
Nghost:        787.000 ave         787 max         787 min
Histogram: 1 0 0 0 0 0 0 0 0 0
Neighs:         0.00000 ave           0 max           0 min
Histogram: 1 0 0 0 0 0 0 0 0 0
FullNghs:      3920.00 ave        3920 max        3920 min
Histogram: 1 0 0 0 0 0 0 0 0 0

Total # of neighbors = 3920
Ave neighs/atom = 81.666667
Neighbor list builds = 0
Dangerous builds = 0

write_dump      all atom dump.${i}
write_dump      all atom dump.15

print           "${rdisp},${SFE}" append gsfe
0.5,764.185884078081

unfix           1
unfix           2

next            i
jump            SELF loop

variable        rdisp equal $i/${steps} # the relative displacement
variable        rdisp equal 16/${steps} 
variable        rdisp equal 16/30 

displace_atoms  upper move 0.0 ${ydisp} 0 units lattice
displace_atoms  upper move 0.0 0.0333333333333333 0 units lattice
Displacing atoms ...

fix             1 mobile setforce 0. 0. NULL # only allowed to relax in Z direction
fix             2 boundary setforce 0. 0. 0. # boundary is fixed to avoid the surface effect

min_style       cg
minimize        1E-10 1E-10 100000 100000
WARNING: Using 'neigh_modify every 1 delay 0 check yes' setting during minimization (../min.cpp:188)
Per MPI rank memory allocation (min/avg/max) = 4.220 | 4.220 | 4.220 Mbytes
Step Temp E_pair E_mol TotEng Press 
     150            0    -366.6199            0    -366.6199   -17488.654 
     160            0   -366.66602            0   -366.66602   -16850.149 
Loop time of 0.107927 on 1 procs for 10 steps with 48 atoms

112.6% CPU use with 1 MPI tasks x no OpenMP threads

Minimization stats:
  Stopping criterion = energy tolerance
  Energy initial, next-to-last, final = 
     -366.619895686958  -366.666018774202  -366.666018792433
  Force two-norm initial, final = 0.56721510 0.00023568411
  Force max component initial, final = 0.26710136 6.3181221e-05
  Final line search alpha, max atom move = 1.0000000 6.3181221e-05
  Iterations, force evaluations = 10 20

MPI task timing breakdown:
Section |  min time  |  avg time  |  max time  |%varavg| %total
---------------------------------------------------------------
Pair    | 0.10759    | 0.10759    | 0.10759    |   0.0 | 99.68
Neigh   | 0          | 0          | 0          |   0.0 |  0.00
Comm    | 0.00011754 | 0.00011754 | 0.00011754 |   0.0 |  0.11
Output  | 0          | 0          | 0          |   0.0 |  0.00
Modify  | 2.1219e-05 | 2.1219e-05 | 2.1219e-05 |   0.0 |  0.02
Other   |            | 0.0002027  |            |       |  0.19

Nlocal:        48.0000 ave          48 max          48 min
Histogram: 1 0 0 0 0 0 0 0 0 0
Nghost:        787.000 ave         787 max         787 min
Histogram: 1 0 0 0 0 0 0 0 0 0
Neighs:         0.00000 ave           0 max           0 min
Histogram: 1 0 0 0 0 0 0 0 0 0
FullNghs:      3908.00 ave        3908 max        3908 min
Histogram: 1 0 0 0 0 0 0 0 0 0

Total # of neighbors = 3908
Ave neighs/atom = 81.416667
Neighbor list builds = 0
Dangerous builds = 0

write_dump      all atom dump.${i}
write_dump      all atom dump.16

print           "${rdisp},${SFE}" append gsfe
0.533333333333333,860.135080131643

unfix           1
unfix           2

next            i
jump            SELF loop

variable        rdisp equal $i/${steps} # the relative displacement
variable        rdisp equal 17/${steps} 
variable        rdisp equal 17/30 

displace_atoms  upper move 0.0 ${ydisp} 0 units lattice
displace_atoms  upper move 0.0 0.0333333333333333 0 units lattice
Displacing atoms ...

fix             1 mobile setforce 0. 0. NULL # only allowed to relax in Z direction
fix             2 boundary setforce 0. 0. 0. # boundary is fixed to avoid the surface effect

min_style       cg
minimize        1E-10 1E-10 100000 100000
WARNING: Using 'neigh_modify every 1 delay 0 check yes' setting during minimization (../min.cpp:188)
Per MPI rank memory allocation (min/avg/max) = 4.220 | 4.220 | 4.220 Mbytes
Step Temp E_pair E_mol TotEng Press 
     160            0   -366.37001            0   -366.37001   -16957.338 
     170            0   -366.40526            0   -366.40526    -15829.27 
Loop time of 0.107903 on 1 procs for 10 steps with 48 atoms

112.0% CPU use with 1 MPI tasks x no OpenMP threads

Minimization stats:
  Stopping criterion = energy tolerance
  Energy initial, next-to-last, final = 
      -366.37000913554  -366.405264512958  -366.405264533826
  Force two-norm initial, final = 0.51566316 0.00035540500
  Force max component initial, final = 0.24142003 0.00011940271
  Final line search alpha, max atom move = 1.0000000 0.00011940271
  Iterations, force evaluations = 10 20

MPI task timing breakdown:
Section |  min time  |  avg time  |  max time  |%varavg| %total
---------------------------------------------------------------
Pair    | 0.10759    | 0.10759    | 0.10759    |   0.0 | 99.71
Neigh   | 0          | 0          | 0          |   0.0 |  0.00
Comm    | 0.00011516 | 0.00011516 | 0.00011516 |   0.0 |  0.11
Output  | 0          | 0          | 0          |   0.0 |  0.00
Modify  | 1.9789e-05 | 1.9789e-05 | 1.9789e-05 |   0.0 |  0.02
Other   |            | 0.0001767  |            |       |  0.16

Nlocal:        48.0000 ave          48 max          48 min
Histogram: 1 0 0 0 0 0 0 0 0 0
Nghost:        787.000 ave         787 max         787 min
Histogram: 1 0 0 0 0 0 0 0 0 0
Neighs:         0.00000 ave           0 max           0 min
Histogram: 1 0 0 0 0 0 0 0 0 0
FullNghs:      3916.00 ave        3916 max        3916 min
Histogram: 1 0 0 0 0 0 0 0 0 0

Total # of neighbors = 3916
Ave neighs/atom = 81.583333
Neighbor list builds = 0
Dangerous builds = 0

write_dump      all atom dump.${i}
write_dump      all atom dump.17

print           "${rdisp},${SFE}" append gsfe
0.566666666666667,992.930805806568

unfix           1
unfix           2

next            i
jump            SELF loop

variable        rdisp equal $i/${steps} # the relative displacement
variable        rdisp equal 18/${steps} 
variable        rdisp equal 18/30 

displace_atoms  upper move 0.0 ${ydisp} 0 units lattice
displace_atoms  upper move 0.0 0.0333333333333333 0 units lattice
Displacing atoms ...

fix             1 mobile setforce 0. 0. NULL # only allowed to relax in Z direction
fix             2 boundary setforce 0. 0. 0. # boundary is fixed to avoid the surface effect

min_style       cg
minimize        1E-10 1E-10 100000 100000
WARNING: Using 'neigh_modify every 1 delay 0 check yes' setting during minimization (../min.cpp:188)
Per MPI rank memory allocation (min/avg/max) = 4.220 | 4.220 | 4.220 Mbytes
Step Temp E_pair E_mol TotEng Press 
     170            0   -366.22066            0   -366.22066   -16081.643 
     178            0   -366.22621            0   -366.22621   -15810.248 
Loop time of 0.0874002 on 1 procs for 8 steps with 48 atoms

119.3% CPU use with 1 MPI tasks x no OpenMP threads

Minimization stats:
  Stopping criterion = energy tolerance
  Energy initial, next-to-last, final = 
     -366.220662467578  -366.226212255429  -366.226212278672
  Force two-norm initial, final = 0.23628918 0.00018917529
  Force max component initial, final = 0.10843150 4.5544982e-05
  Final line search alpha, max atom move = 1.0000000 4.5544982e-05
  Iterations, force evaluations = 8 16

MPI task timing breakdown:
Section |  min time  |  avg time  |  max time  |%varavg| %total
---------------------------------------------------------------
Pair    | 0.087152   | 0.087152   | 0.087152   |   0.0 | 99.72
Neigh   | 0          | 0          | 0          |   0.0 |  0.00
Comm    | 9.0599e-05 | 9.0599e-05 | 9.0599e-05 |   0.0 |  0.10
Output  | 0          | 0          | 0          |   0.0 |  0.00
Modify  | 1.6928e-05 | 1.6928e-05 | 1.6928e-05 |   0.0 |  0.02
Other   |            | 0.0001404  |            |       |  0.16

Nlocal:        48.0000 ave          48 max          48 min
Histogram: 1 0 0 0 0 0 0 0 0 0
Nghost:        781.000 ave         781 max         781 min
Histogram: 1 0 0 0 0 0 0 0 0 0
Neighs:         0.00000 ave           0 max           0 min
Histogram: 1 0 0 0 0 0 0 0 0 0
FullNghs:      3924.00 ave        3924 max        3924 min
Histogram: 1 0 0 0 0 0 0 0 0 0

Total # of neighbors = 3924
Ave neighs/atom = 81.750000
Neighbor list builds = 0
Dangerous builds = 0

write_dump      all atom dump.${i}
write_dump      all atom dump.18

print           "${rdisp},${SFE}" append gsfe
0.6,1084.11771214476

unfix           1
unfix           2

next            i
jump            SELF loop

variable        rdisp equal $i/${steps} # the relative displacement
variable        rdisp equal 19/${steps} 
variable        rdisp equal 19/30 

displace_atoms  upper move 0.0 ${ydisp} 0 units lattice
displace_atoms  upper move 0.0 0.0333333333333333 0 units lattice
Displacing atoms ...

fix             1 mobile setforce 0. 0. NULL # only allowed to relax in Z direction
fix             2 boundary setforce 0. 0. 0. # boundary is fixed to avoid the surface effect

min_style       cg
minimize        1E-10 1E-10 100000 100000
WARNING: Using 'neigh_modify every 1 delay 0 check yes' setting during minimization (../min.cpp:188)
Per MPI rank memory allocation (min/avg/max) = 4.220 | 4.220 | 4.220 Mbytes
Step Temp E_pair E_mol TotEng Press 
     178            0   -366.27311            0   -366.27311   -15242.659 
     187            0   -366.27589            0   -366.27589   -15134.498 
Loop time of 0.0977204 on 1 procs for 9 steps with 48 atoms

114.1% CPU use with 1 MPI tasks x no OpenMP threads

Minimization stats:
  Stopping criterion = energy tolerance
  Energy initial, next-to-last, final = 
     -366.273108006263  -366.275894927645  -366.275894940262
  Force two-norm initial, final = 0.12872547 0.00016806365
  Force max component initial, final = 0.042366204 5.1776091e-05
  Final line search alpha, max atom move = 1.0000000 5.1776091e-05
  Iterations, force evaluations = 9 18

MPI task timing breakdown:
Section |  min time  |  avg time  |  max time  |%varavg| %total
---------------------------------------------------------------
Pair    | 0.097443   | 0.097443   | 0.097443   |   0.0 | 99.72
Neigh   | 0          | 0          | 0          |   0.0 |  0.00
Comm    | 9.9659e-05 | 9.9659e-05 | 9.9659e-05 |   0.0 |  0.10
Output  | 0          | 0          | 0          |   0.0 |  0.00
Modify  | 1.8835e-05 | 1.8835e-05 | 1.8835e-05 |   0.0 |  0.02
Other   |            | 0.0001585  |            |       |  0.16

Nlocal:        48.0000 ave          48 max          48 min
Histogram: 1 0 0 0 0 0 0 0 0 0
Nghost:        787.000 ave         787 max         787 min
Histogram: 1 0 0 0 0 0 0 0 0 0
Neighs:         0.00000 ave           0 max           0 min
Histogram: 1 0 0 0 0 0 0 0 0 0
FullNghs:      3900.00 ave        3900 max        3900 min
Histogram: 1 0 0 0 0 0 0 0 0 0

Total # of neighbors = 3900
Ave neighs/atom = 81.250000
Neighbor list builds = 0
Dangerous builds = 0

write_dump      all atom dump.${i}
write_dump      all atom dump.19

print           "${rdisp},${SFE}" append gsfe
0.633333333333333,1058.81555549143

unfix           1
unfix           2

next            i
jump            SELF loop

variable        rdisp equal $i/${steps} # the relative displacement
variable        rdisp equal 20/${steps} 
variable        rdisp equal 20/30 

displace_atoms  upper move 0.0 ${ydisp} 0 units lattice
displace_atoms  upper move 0.0 0.0333333333333333 0 units lattice
Displacing atoms ...

fix             1 mobile setforce 0. 0. NULL # only allowed to relax in Z direction
fix             2 boundary setforce 0. 0. 0. # boundary is fixed to avoid the surface effect

min_style       cg
minimize        1E-10 1E-10 100000 100000
WARNING: Using 'neigh_modify every 1 delay 0 check yes' setting during minimization (../min.cpp:188)
Per MPI rank memory allocation (min/avg/max) = 4.220 | 4.220 | 4.220 Mbytes
Step Temp E_pair E_mol TotEng Press 
     187            0   -366.55665            0   -366.55665   -14039.604 
     195            0   -366.56022            0   -366.56022   -14422.047 
Loop time of 0.0869722 on 1 procs for 8 steps with 48 atoms

119.8% CPU use with 1 MPI tasks x no OpenMP threads

Minimization stats:
  Stopping criterion = energy tolerance
  Energy initial, next-to-last, final = 
     -366.556648588243  -366.560220257932  -366.560220261545
  Force two-norm initial, final = 0.23683878 6.0703990e-05
  Force max component initial, final = 0.076866648 2.1701824e-05
  Final line search alpha, max atom move = 1.0000000 2.1701824e-05
  Iterations, force evaluations = 8 16

MPI task timing breakdown:
Section |  min time  |  avg time  |  max time  |%varavg| %total
---------------------------------------------------------------
Pair    | 0.086724   | 0.086724   | 0.086724   |   0.0 | 99.71
Neigh   | 0          | 0          | 0          |   0.0 |  0.00
Comm    | 9.1076e-05 | 9.1076e-05 | 9.1076e-05 |   0.0 |  0.10
Output  | 0          | 0          | 0          |   0.0 |  0.00
Modify  | 1.6689e-05 | 1.6689e-05 | 1.6689e-05 |   0.0 |  0.02
Other   |            | 0.0001407  |            |       |  0.16

Nlocal:        48.0000 ave          48 max          48 min
Histogram: 1 0 0 0 0 0 0 0 0 0
Nghost:        787.000 ave         787 max         787 min
Histogram: 1 0 0 0 0 0 0 0 0 0
Neighs:         0.00000 ave           0 max           0 min
Histogram: 1 0 0 0 0 0 0 0 0 0
FullNghs:      3884.00 ave        3884 max        3884 min
Histogram: 1 0 0 0 0 0 0 0 0 0

Total # of neighbors = 3884
Ave neighs/atom = 80.916667
Neighbor list builds = 0
Dangerous builds = 0

write_dump      all atom dump.${i}
write_dump      all atom dump.20

print           "${rdisp},${SFE}" append gsfe
0.666666666666667,914.015667776451

unfix           1
unfix           2

next            i
jump            SELF loop

variable        rdisp equal $i/${steps} # the relative displacement
variable        rdisp equal 21/${steps} 
variable        rdisp equal 21/30 

displace_atoms  upper move 0.0 ${ydisp} 0 units lattice
displace_atoms  upper move 0.0 0.0333333333333333 0 units lattice
Displacing atoms ...

fix             1 mobile setforce 0. 0. NULL # only allowed to relax in Z direction
fix             2 boundary setforce 0. 0. 0. # boundary is fixed to avoid the surface effect

min_style       cg
minimize        1E-10 1E-10 100000 100000
WARNING: Using 'neigh_modify every 1 delay 0 check yes' setting during minimization (../min.cpp:188)
Per MPI rank memory allocation (min/avg/max) = 4.220 | 4.220 | 4.220 Mbytes
Step Temp E_pair E_mol TotEng Press 
     195            0   -366.84359            0   -366.84359   -15000.894 
     203            0   -366.88403            0   -366.88403   -16398.326 
Loop time of 0.0865757 on 1 procs for 8 steps with 48 atoms

121.9% CPU use with 1 MPI tasks x no OpenMP threads

Minimization stats:
  Stopping criterion = energy tolerance
  Energy initial, next-to-last, final = 
     -366.843593843558  -366.884034928811  -366.884034943298
  Force two-norm initial, final = 0.72341734 0.00021301303
  Force max component initial, final = 0.25946677 6.2150789e-05
  Final line search alpha, max atom move = 1.0000000 6.2150789e-05
  Iterations, force evaluations = 8 16

MPI task timing breakdown:
Section |  min time  |  avg time  |  max time  |%varavg| %total
---------------------------------------------------------------
Pair    | 0.086319   | 0.086319   | 0.086319   |   0.0 | 99.70
Neigh   | 0          | 0          | 0          |   0.0 |  0.00
Comm    | 9.346e-05  | 9.346e-05  | 9.346e-05  |   0.0 |  0.11
Output  | 0          | 0          | 0          |   0.0 |  0.00
Modify  | 1.6451e-05 | 1.6451e-05 | 1.6451e-05 |   0.0 |  0.02
Other   |            | 0.0001464  |            |       |  0.17

Nlocal:        48.0000 ave          48 max          48 min
Histogram: 1 0 0 0 0 0 0 0 0 0
Nghost:        787.000 ave         787 max         787 min
Histogram: 1 0 0 0 0 0 0 0 0 0
Neighs:         0.00000 ave           0 max           0 min
Histogram: 1 0 0 0 0 0 0 0 0 0
FullNghs:      3896.00 ave        3896 max        3896 min
Histogram: 1 0 0 0 0 0 0 0 0 0

Total # of neighbors = 3896
Ave neighs/atom = 81.166667
Neighbor list builds = 0
Dangerous builds = 0

write_dump      all atom dump.${i}
write_dump      all atom dump.21

print           "${rdisp},${SFE}" append gsfe
0.7,749.104820769396

unfix           1
unfix           2

next            i
jump            SELF loop

variable        rdisp equal $i/${steps} # the relative displacement
variable        rdisp equal 22/${steps} 
variable        rdisp equal 22/30 

displace_atoms  upper move 0.0 ${ydisp} 0 units lattice
displace_atoms  upper move 0.0 0.0333333333333333 0 units lattice
Displacing atoms ...

fix             1 mobile setforce 0. 0. NULL # only allowed to relax in Z direction
fix             2 boundary setforce 0. 0. 0. # boundary is fixed to avoid the surface effect

min_style       cg
minimize        1E-10 1E-10 100000 100000
WARNING: Using 'neigh_modify every 1 delay 0 check yes' setting during minimization (../min.cpp:188)
Per MPI rank memory allocation (min/avg/max) = 4.220 | 4.220 | 4.220 Mbytes
Step Temp E_pair E_mol TotEng Press 
     203            0   -367.00932            0   -367.00932   -15595.552 
     211            0   -367.06058            0   -367.06058   -16559.633 
Loop time of 0.0875885 on 1 procs for 8 steps with 48 atoms

112.9% CPU use with 1 MPI tasks x no OpenMP threads

Minimization stats:
  Stopping criterion = energy tolerance
  Energy initial, next-to-last, final = 
     -367.009324539312  -367.060575676087  -367.060575688679
  Force two-norm initial, final = 0.63522391 0.00016928318
  Force max component initial, final = 0.29857794 4.7846185e-05
  Final line search alpha, max atom move = 1.0000000 4.7846185e-05
  Iterations, force evaluations = 8 16

MPI task timing breakdown:
Section |  min time  |  avg time  |  max time  |%varavg| %total
---------------------------------------------------------------
Pair    | 0.087326   | 0.087326   | 0.087326   |   0.0 | 99.70
Neigh   | 0          | 0          | 0          |   0.0 |  0.00
Comm    | 9.8228e-05 | 9.8228e-05 | 9.8228e-05 |   0.0 |  0.11
Output  | 0          | 0          | 0          |   0.0 |  0.00
Modify  | 1.4305e-05 | 1.4305e-05 | 1.4305e-05 |   0.0 |  0.02
Other   |            | 0.0001497  |            |       |  0.17

Nlocal:        48.0000 ave          48 max          48 min
Histogram: 1 0 0 0 0 0 0 0 0 0
Nghost:        787.000 ave         787 max         787 min
Histogram: 1 0 0 0 0 0 0 0 0 0
Neighs:         0.00000 ave           0 max           0 min
Histogram: 1 0 0 0 0 0 0 0 0 0
FullNghs:      3920.00 ave        3920 max        3920 min
Histogram: 1 0 0 0 0 0 0 0 0 0

Total # of neighbors = 3920
Ave neighs/atom = 81.666667
Neighbor list builds = 0
Dangerous builds = 0

write_dump      all atom dump.${i}
write_dump      all atom dump.22

print           "${rdisp},${SFE}" append gsfe
0.733333333333333,659.196964540016

unfix           1
unfix           2

next            i
jump            SELF loop

variable        rdisp equal $i/${steps} # the relative displacement
variable        rdisp equal 23/${steps} 
variable        rdisp equal 23/30 

displace_atoms  upper move 0.0 ${ydisp} 0 units lattice
displace_atoms  upper move 0.0 0.0333333333333333 0 units lattice
Displacing atoms ...

fix             1 mobile setforce 0. 0. NULL # only allowed to relax in Z direction
fix             2 boundary setforce 0. 0. 0. # boundary is fixed to avoid the surface effect

min_style       cg
minimize        1E-10 1E-10 100000 100000
WARNING: Using 'neigh_modify every 1 delay 0 check yes' setting during minimization (../min.cpp:188)
Per MPI rank memory allocation (min/avg/max) = 4.220 | 4.220 | 4.220 Mbytes
Step Temp E_pair E_mol TotEng Press 
     211            0   -366.93065            0   -366.93065   -16242.154 
     220            0   -366.96075            0   -366.96075   -16745.538 
Loop time of 0.0973444 on 1 procs for 9 steps with 48 atoms

123.0% CPU use with 1 MPI tasks x no OpenMP threads

Minimization stats:
  Stopping criterion = energy tolerance
  Energy initial, next-to-last, final = 
     -366.930651040608  -366.960746131864  -366.960746133572
  Force two-norm initial, final = 0.62231681 6.6309562e-05
  Force max component initial, final = 0.24868241 1.8200385e-05
  Final line search alpha, max atom move = 1.0000000 1.8200385e-05
  Iterations, force evaluations = 9 18

MPI task timing breakdown:
Section |  min time  |  avg time  |  max time  |%varavg| %total
---------------------------------------------------------------
Pair    | 0.097034   | 0.097034   | 0.097034   |   0.0 | 99.68
Neigh   | 0          | 0          | 0          |   0.0 |  0.00
Comm    | 0.00010514 | 0.00010514 | 0.00010514 |   0.0 |  0.11
Output  | 0          | 0          | 0          |   0.0 |  0.00
Modify  | 1.7405e-05 | 1.7405e-05 | 1.7405e-05 |   0.0 |  0.02
Other   |            | 0.0001876  |            |       |  0.19

Nlocal:        48.0000 ave          48 max          48 min
Histogram: 1 0 0 0 0 0 0 0 0 0
Nghost:        787.000 ave         787 max         787 min
Histogram: 1 0 0 0 0 0 0 0 0 0
Neighs:         0.00000 ave           0 max           0 min
Histogram: 1 0 0 0 0 0 0 0 0 0
FullNghs:      3912.00 ave        3912 max        3912 min
Histogram: 1 0 0 0 0 0 0 0 0 0

Total # of neighbors = 3912
Ave neighs/atom = 81.500000
Neighbor list builds = 0
Dangerous builds = 0

write_dump      all atom dump.${i}
write_dump      all atom dump.23

print           "${rdisp},${SFE}" append gsfe
0.766666666666667,710.037699740115

unfix           1
unfix           2

next            i
jump            SELF loop

variable        rdisp equal $i/${steps} # the relative displacement
variable        rdisp equal 24/${steps} 
variable        rdisp equal 24/30 

displace_atoms  upper move 0.0 ${ydisp} 0 units lattice
displace_atoms  upper move 0.0 0.0333333333333333 0 units lattice
Displacing atoms ...

fix             1 mobile setforce 0. 0. NULL # only allowed to relax in Z direction
fix             2 boundary setforce 0. 0. 0. # boundary is fixed to avoid the surface effect

min_style       cg
minimize        1E-10 1E-10 100000 100000
WARNING: Using 'neigh_modify every 1 delay 0 check yes' setting during minimization (../min.cpp:188)
Per MPI rank memory allocation (min/avg/max) = 4.220 | 4.220 | 4.220 Mbytes
Step Temp E_pair E_mol TotEng Press 
     220            0   -366.58048            0   -366.58048   -16268.521 
     228            0   -366.61265            0   -366.61265    -15593.26 
Loop time of 0.0871551 on 1 procs for 8 steps with 48 atoms

114.2% CPU use with 1 MPI tasks x no OpenMP threads

Minimization stats:
  Stopping criterion = energy tolerance
  Energy initial, next-to-last, final = 
      -366.58047722847  -366.612646397837  -366.612646417299
  Force two-norm initial, final = 0.72229980 0.00020406541
  Force max component initial, final = 0.34828444 6.7571001e-05
  Final line search alpha, max atom move = 1.0000000 6.7571001e-05
  Iterations, force evaluations = 8 16

MPI task timing breakdown:
Section |  min time  |  avg time  |  max time  |%varavg| %total
---------------------------------------------------------------
Pair    | 0.086878   | 0.086878   | 0.086878   |   0.0 | 99.68
Neigh   | 0          | 0          | 0          |   0.0 |  0.00
Comm    | 9.0599e-05 | 9.0599e-05 | 9.0599e-05 |   0.0 |  0.10
Output  | 0          | 0          | 0          |   0.0 |  0.00
Modify  | 2.7418e-05 | 2.7418e-05 | 2.7418e-05 |   0.0 |  0.03
Other   |            | 0.0001593  |            |       |  0.18

Nlocal:        48.0000 ave          48 max          48 min
Histogram: 1 0 0 0 0 0 0 0 0 0
Nghost:        787.000 ave         787 max         787 min
Histogram: 1 0 0 0 0 0 0 0 0 0
Neighs:         0.00000 ave           0 max           0 min
Histogram: 1 0 0 0 0 0 0 0 0 0
FullNghs:      3952.00 ave        3952 max        3952 min
Histogram: 1 0 0 0 0 0 0 0 0 0

Total # of neighbors = 3952
Ave neighs/atom = 82.333333
Neighbor list builds = 0
Dangerous builds = 0

write_dump      all atom dump.${i}
write_dump      all atom dump.24

print           "${rdisp},${SFE}" append gsfe
0.8,887.316317073733

unfix           1
unfix           2

next            i
jump            SELF loop

variable        rdisp equal $i/${steps} # the relative displacement
variable        rdisp equal 25/${steps} 
variable        rdisp equal 25/30 

displace_atoms  upper move 0.0 ${ydisp} 0 units lattice
displace_atoms  upper move 0.0 0.0333333333333333 0 units lattice
Displacing atoms ...

fix             1 mobile setforce 0. 0. NULL # only allowed to relax in Z direction
fix             2 boundary setforce 0. 0. 0. # boundary is fixed to avoid the surface effect

min_style       cg
minimize        1E-10 1E-10 100000 100000
WARNING: Using 'neigh_modify every 1 delay 0 check yes' setting during minimization (../min.cpp:188)
Per MPI rank memory allocation (min/avg/max) = 4.220 | 4.220 | 4.220 Mbytes
Step Temp E_pair E_mol TotEng Press 
     228            0   -366.50398            0   -366.50398   -16222.317 
     235            0   -366.50939            0   -366.50939    -16038.62 
Loop time of 0.0763345 on 1 procs for 7 steps with 48 atoms

107.1% CPU use with 1 MPI tasks x no OpenMP threads

Minimization stats:
  Stopping criterion = energy tolerance
  Energy initial, next-to-last, final = 
      -366.50397682686  -366.509390915814  -366.509390922258
  Force two-norm initial, final = 0.32621204 5.0957486e-05
  Force max component initial, final = 0.14615663 1.8646167e-05
  Final line search alpha, max atom move = 1.0000000 1.8646167e-05
  Iterations, force evaluations = 7 14

MPI task timing breakdown:
Section |  min time  |  avg time  |  max time  |%varavg| %total
---------------------------------------------------------------
Pair    | 0.076121   | 0.076121   | 0.076121   |   0.0 | 99.72
Neigh   | 0          | 0          | 0          |   0.0 |  0.00
Comm    | 7.5579e-05 | 7.5579e-05 | 7.5579e-05 |   0.0 |  0.10
Output  | 0          | 0          | 0          |   0.0 |  0.00
Modify  | 1.4305e-05 | 1.4305e-05 | 1.4305e-05 |   0.0 |  0.02
Other   |            | 0.000124   |            |       |  0.16

Nlocal:        48.0000 ave          48 max          48 min
Histogram: 1 0 0 0 0 0 0 0 0 0
Nghost:        787.000 ave         787 max         787 min
Histogram: 1 0 0 0 0 0 0 0 0 0
Neighs:         0.00000 ave           0 max           0 min
Histogram: 1 0 0 0 0 0 0 0 0 0
FullNghs:      3936.00 ave        3936 max        3936 min
Histogram: 1 0 0 0 0 0 0 0 0 0

Total # of neighbors = 3936
Ave neighs/atom = 82.000000
Neighbor list builds = 0
Dangerous builds = 0

write_dump      all atom dump.${i}
write_dump      all atom dump.25

print           "${rdisp},${SFE}" append gsfe
0.833333333333333,939.901799156371

unfix           1
unfix           2

next            i
jump            SELF loop

variable        rdisp equal $i/${steps} # the relative displacement
variable        rdisp equal 26/${steps} 
variable        rdisp equal 26/30 

displace_atoms  upper move 0.0 ${ydisp} 0 units lattice
displace_atoms  upper move 0.0 0.0333333333333333 0 units lattice
Displacing atoms ...

fix             1 mobile setforce 0. 0. NULL # only allowed to relax in Z direction
fix             2 boundary setforce 0. 0. 0. # boundary is fixed to avoid the surface effect

min_style       cg
minimize        1E-10 1E-10 100000 100000
WARNING: Using 'neigh_modify every 1 delay 0 check yes' setting during minimization (../min.cpp:188)
Per MPI rank memory allocation (min/avg/max) = 4.220 | 4.220 | 4.220 Mbytes
Step Temp E_pair E_mol TotEng Press 
     235            0   -366.75362            0   -366.75362   -16797.451 
     243            0   -366.76022            0   -366.76022   -17156.826 
Loop time of 0.0866301 on 1 procs for 8 steps with 48 atoms

114.2% CPU use with 1 MPI tasks x no OpenMP threads

Minimization stats:
  Stopping criterion = energy tolerance
  Energy initial, next-to-last, final = 
     -366.753616015808  -366.760216607299  -366.760216631422
  Force two-norm initial, final = 0.24050669 0.00021810764
  Force max component initial, final = 0.10350470 8.1205742e-05
  Final line search alpha, max atom move = 1.0000000 8.1205742e-05
  Iterations, force evaluations = 8 16

MPI task timing breakdown:
Section |  min time  |  avg time  |  max time  |%varavg| %total
---------------------------------------------------------------
Pair    | 0.086388   | 0.086388   | 0.086388   |   0.0 | 99.72
Neigh   | 0          | 0          | 0          |   0.0 |  0.00
Comm    | 8.5354e-05 | 8.5354e-05 | 8.5354e-05 |   0.0 |  0.10
Output  | 0          | 0          | 0          |   0.0 |  0.00
Modify  | 1.4782e-05 | 1.4782e-05 | 1.4782e-05 |   0.0 |  0.02
Other   |            | 0.0001419  |            |       |  0.16

Nlocal:        48.0000 ave          48 max          48 min
Histogram: 1 0 0 0 0 0 0 0 0 0
Nghost:        788.000 ave         788 max         788 min
Histogram: 1 0 0 0 0 0 0 0 0 0
Neighs:         0.00000 ave           0 max           0 min
Histogram: 1 0 0 0 0 0 0 0 0 0
FullNghs:      3940.00 ave        3940 max        3940 min
Histogram: 1 0 0 0 0 0 0 0 0 0

Total # of neighbors = 3940
Ave neighs/atom = 82.083333
Neighbor list builds = 0
Dangerous builds = 0

write_dump      all atom dump.${i}
write_dump      all atom dump.26

print           "${rdisp},${SFE}" append gsfe
0.866666666666667,812.162439330475

unfix           1
unfix           2

next            i
jump            SELF loop

variable        rdisp equal $i/${steps} # the relative displacement
variable        rdisp equal 27/${steps} 
variable        rdisp equal 27/30 

displace_atoms  upper move 0.0 ${ydisp} 0 units lattice
displace_atoms  upper move 0.0 0.0333333333333333 0 units lattice
Displacing atoms ...

fix             1 mobile setforce 0. 0. NULL # only allowed to relax in Z direction
fix             2 boundary setforce 0. 0. 0. # boundary is fixed to avoid the surface effect

min_style       cg
minimize        1E-10 1E-10 100000 100000
WARNING: Using 'neigh_modify every 1 delay 0 check yes' setting during minimization (../min.cpp:188)
Per MPI rank memory allocation (min/avg/max) = 4.220 | 4.220 | 4.220 Mbytes
Step Temp E_pair E_mol TotEng Press 
     243            0   -367.19816            0   -367.19816    -17305.78 
     253            0   -367.21725            0   -367.21725   -17707.222 
Loop time of 0.106859 on 1 procs for 10 steps with 48 atoms

104.8% CPU use with 1 MPI tasks x no OpenMP threads

Minimization stats:
  Stopping criterion = energy tolerance
  Energy initial, next-to-last, final = 
     -367.198162655813  -367.217250374292   -367.21725038779
  Force two-norm initial, final = 0.53630959 9.3640059e-05
  Force max component initial, final = 0.26185054 3.4155593e-05
  Final line search alpha, max atom move = 1.0000000 3.4155593e-05
  Iterations, force evaluations = 10 20

MPI task timing breakdown:
Section |  min time  |  avg time  |  max time  |%varavg| %total
---------------------------------------------------------------
Pair    | 0.10657    | 0.10657    | 0.10657    |   0.0 | 99.73
Neigh   | 0          | 0          | 0          |   0.0 |  0.00
Comm    | 0.0001123  | 0.0001123  | 0.0001123  |   0.0 |  0.11
Output  | 0          | 0          | 0          |   0.0 |  0.00
Modify  | 1.955e-05  | 1.955e-05  | 1.955e-05  |   0.0 |  0.02
Other   |            | 0.000159   |            |       |  0.15

Nlocal:        48.0000 ave          48 max          48 min
Histogram: 1 0 0 0 0 0 0 0 0 0
Nghost:        793.000 ave         793 max         793 min
Histogram: 1 0 0 0 0 0 0 0 0 0
Neighs:         0.00000 ave           0 max           0 min
Histogram: 1 0 0 0 0 0 0 0 0 0
FullNghs:      3940.00 ave        3940 max        3940 min
Histogram: 1 0 0 0 0 0 0 0 0 0

Total # of neighbors = 3940
Ave neighs/atom = 82.083333
Neighbor list builds = 0
Dangerous builds = 0

write_dump      all atom dump.${i}
write_dump      all atom dump.27

print           "${rdisp},${SFE}" append gsfe
0.9,579.406396690413

unfix           1
unfix           2

next            i
jump            SELF loop

variable        rdisp equal $i/${steps} # the relative displacement
variable        rdisp equal 28/${steps} 
variable        rdisp equal 28/30 

displace_atoms  upper move 0.0 ${ydisp} 0 units lattice
displace_atoms  upper move 0.0 0.0333333333333333 0 units lattice
Displacing atoms ...

fix             1 mobile setforce 0. 0. NULL # only allowed to relax in Z direction
fix             2 boundary setforce 0. 0. 0. # boundary is fixed to avoid the surface effect

min_style       cg
minimize        1E-10 1E-10 100000 100000
WARNING: Using 'neigh_modify every 1 delay 0 check yes' setting during minimization (../min.cpp:188)
Per MPI rank memory allocation (min/avg/max) = 4.220 | 4.220 | 4.220 Mbytes
Step Temp E_pair E_mol TotEng Press 
     253            0   -367.65632            0   -367.65632   -18528.485 
     263            0   -367.70498            0   -367.70498   -19100.681 
Loop time of 0.107812 on 1 procs for 10 steps with 48 atoms

116.8% CPU use with 1 MPI tasks x no OpenMP threads

Minimization stats:
  Stopping criterion = energy tolerance
  Energy initial, next-to-last, final = 
     -367.656318137108  -367.704980554546   -367.70498055863
  Force two-norm initial, final = 0.75883737 8.5721693e-05
  Force max component initial, final = 0.37217847 2.8802233e-05
  Final line search alpha, max atom move = 1.0000000 2.8802233e-05
  Iterations, force evaluations = 10 20

MPI task timing breakdown:
Section |  min time  |  avg time  |  max time  |%varavg| %total
---------------------------------------------------------------
Pair    | 0.1075     | 0.1075     | 0.1075     |   0.0 | 99.71
Neigh   | 0          | 0          | 0          |   0.0 |  0.00
Comm    | 0.00011182 | 0.00011182 | 0.00011182 |   0.0 |  0.10
Output  | 0          | 0          | 0          |   0.0 |  0.00
Modify  | 2.0742e-05 | 2.0742e-05 | 2.0742e-05 |   0.0 |  0.02
Other   |            | 0.0001755  |            |       |  0.16

Nlocal:        48.0000 ave          48 max          48 min
Histogram: 1 0 0 0 0 0 0 0 0 0
Nghost:        788.000 ave         788 max         788 min
Histogram: 1 0 0 0 0 0 0 0 0 0
Neighs:         0.00000 ave           0 max           0 min
Histogram: 1 0 0 0 0 0 0 0 0 0
FullNghs:      3932.00 ave        3932 max        3932 min
Histogram: 1 0 0 0 0 0 0 0 0 0

Total # of neighbors = 3932
Ave neighs/atom = 81.916667
Neighbor list builds = 0
Dangerous builds = 0

write_dump      all atom dump.${i}
write_dump      all atom dump.28

print           "${rdisp},${SFE}" append gsfe
0.933333333333333,331.017425725069

unfix           1
unfix           2

next            i
jump            SELF loop

variable        rdisp equal $i/${steps} # the relative displacement
variable        rdisp equal 29/${steps} 
variable        rdisp equal 29/30 

displace_atoms  upper move 0.0 ${ydisp} 0 units lattice
displace_atoms  upper move 0.0 0.0333333333333333 0 units lattice
Displacing atoms ...

fix             1 mobile setforce 0. 0. NULL # only allowed to relax in Z direction
fix             2 boundary setforce 0. 0. 0. # boundary is fixed to avoid the surface effect

min_style       cg
minimize        1E-10 1E-10 100000 100000
WARNING: Using 'neigh_modify every 1 delay 0 check yes' setting during minimization (../min.cpp:188)
Per MPI rank memory allocation (min/avg/max) = 4.220 | 4.220 | 4.220 Mbytes
Step Temp E_pair E_mol TotEng Press 
     263            0   -368.01592            0   -368.01592   -19772.299 
     273            0   -368.08626            0   -368.08626   -20842.102 
Loop time of 0.10718 on 1 procs for 10 steps with 48 atoms

114.8% CPU use with 1 MPI tasks x no OpenMP threads

Minimization stats:
  Stopping criterion = energy tolerance
  Energy initial, next-to-last, final = 
     -368.015916226445  -368.086256387661  -368.086256394187
  Force two-norm initial, final = 0.83462090 6.5566434e-05
  Force max component initial, final = 0.37722989 2.2970652e-05
  Final line search alpha, max atom move = 1.0000000 2.2970652e-05
  Iterations, force evaluations = 10 20

MPI task timing breakdown:
Section |  min time  |  avg time  |  max time  |%varavg| %total
---------------------------------------------------------------
Pair    | 0.10689    | 0.10689    | 0.10689    |   0.0 | 99.73
Neigh   | 0          | 0          | 0          |   0.0 |  0.00
Comm    | 0.00010967 | 0.00010967 | 0.00010967 |   0.0 |  0.10
Output  | 0          | 0          | 0          |   0.0 |  0.00
Modify  | 1.9312e-05 | 1.9312e-05 | 1.9312e-05 |   0.0 |  0.02
Other   |            | 0.0001605  |            |       |  0.15

Nlocal:        48.0000 ave          48 max          48 min
Histogram: 1 0 0 0 0 0 0 0 0 0
Nghost:        788.000 ave         788 max         788 min
Histogram: 1 0 0 0 0 0 0 0 0 0
Neighs:         0.00000 ave           0 max           0 min
Histogram: 1 0 0 0 0 0 0 0 0 0
FullNghs:      3924.00 ave        3924 max        3924 min
Histogram: 1 0 0 0 0 0 0 0 0 0

Total # of neighbors = 3924
Ave neighs/atom = 81.750000
Neighbor list builds = 0
Dangerous builds = 0

write_dump      all atom dump.${i}
write_dump      all atom dump.29

print           "${rdisp},${SFE}" append gsfe
0.966666666666667,136.843027440619

unfix           1
unfix           2

next            i
jump            SELF loop

variable        rdisp equal $i/${steps} # the relative displacement
variable        rdisp equal 30/${steps} 
variable        rdisp equal 30/30 

displace_atoms  upper move 0.0 ${ydisp} 0 units lattice
displace_atoms  upper move 0.0 0.0333333333333333 0 units lattice
Displacing atoms ...

fix             1 mobile setforce 0. 0. NULL # only allowed to relax in Z direction
fix             2 boundary setforce 0. 0. 0. # boundary is fixed to avoid the surface effect

min_style       cg
minimize        1E-10 1E-10 100000 100000
WARNING: Using 'neigh_modify every 1 delay 0 check yes' setting during minimization (../min.cpp:188)
Per MPI rank memory allocation (min/avg/max) = 4.220 | 4.220 | 4.220 Mbytes
Step Temp E_pair E_mol TotEng Press 
     273            0   -368.30971            0   -368.30971   -20793.049 
     280            0   -368.35496            0   -368.35496   -20927.248 
Loop time of 0.0768368 on 1 procs for 7 steps with 48 atoms

109.0% CPU use with 1 MPI tasks x no OpenMP threads

Minimization stats:
  Stopping criterion = energy tolerance
  Energy initial, next-to-last, final = 
     -368.309706224153  -368.354957830882  -368.354957833132
  Force two-norm initial, final = 0.73077870 4.9697163e-05
  Force max component initial, final = 0.33492432 1.3253249e-05
  Final line search alpha, max atom move = 1.0000000 1.3253249e-05
  Iterations, force evaluations = 7 14

MPI task timing breakdown:
Section |  min time  |  avg time  |  max time  |%varavg| %total
---------------------------------------------------------------
Pair    | 0.076633   | 0.076633   | 0.076633   |   0.0 | 99.74
Neigh   | 0          | 0          | 0          |   0.0 |  0.00
Comm    | 7.6294e-05 | 7.6294e-05 | 7.6294e-05 |   0.0 |  0.10
Output  | 0          | 0          | 0          |   0.0 |  0.00
Modify  | 1.2398e-05 | 1.2398e-05 | 1.2398e-05 |   0.0 |  0.02
Other   |            | 0.0001149  |            |       |  0.15

Nlocal:        48.0000 ave          48 max          48 min
Histogram: 1 0 0 0 0 0 0 0 0 0
Nghost:        788.000 ave         788 max         788 min
Histogram: 1 0 0 0 0 0 0 0 0 0
Neighs:         0.00000 ave           0 max           0 min
Histogram: 1 0 0 0 0 0 0 0 0 0
FullNghs:      3968.00 ave        3968 max        3968 min
Histogram: 1 0 0 0 0 0 0 0 0 0

Total # of neighbors = 3968
Ave neighs/atom = 82.666667
Neighbor list builds = 0
Dangerous builds = 0

write_dump      all atom dump.${i}
write_dump      all atom dump.30

print           "${rdisp},${SFE}" append gsfe
1,-1.56749901633852e-06

unfix           1
unfix           2

next            i
jump            SELF loop
Total wall time: 0:00:06
